% Model:              GenSignalFourierDec.mph
% Version:            COMSOL 4.3.2.189
% Date:               Nov 25 2013, 12:07
% Table:              Probe Table 1 - 
% k                      m                        l                        gammac1*Ar, gammac1*Ar   gammas1*Ar, gammas1*Ar   gammac2*Ar, gammac2*Ar   gammas2*Ar, gammas2*Ar   gammac3*Ar, gammac3*Ar   gammas3*Ar, gammas3*Ar
0                        1                        1                        1.1309191873582906E-15   0                        3.638818536313186E-14    0                        -1.674949608592417E-14   0
0                        1                        2                        5.424533743016797        0                        89.11527896728245        0                        -41.57331488579337       0
0                        1                        3                        -6.409370623286496       0                        -350.0342186905853       0                        157.26353972962292       0
0                        1                        4                        -1.5058495739981988E-16  0                        -1.1728235343756958E-14  0                        5.1949089673321805E-15   0
0                        2                        1                        0                        0                        0                        0                        0                        0
0                        2                        2                        0                        0                        0                        0                        0                        0
0                        2                        3                        0                        0                        0                        0                        0                        0
0                        2                        4                        0                        0                        0                        0                        0                        0
1                        1                        1                        20.53131848483608        -7.3549757281000705      629.5928460372206        -311.0957551125364       -281.26032440789885      168.30199845742175
1                        1                        2                        -4.219400531480315       1.7385135255923103       -70.96923651105116       19.096044312145885       32.740994482121515       -11.459033509239376
1                        1                        3                        7.519798412059374E-16    -2.0628418102211902E-16  3.8573340882735275E-14   -1.945515502896706E-14   -1.677787916786458E-14   1.024595709530601E-14
1                        1                        4                        -1.5163300479356736E-16  1.3252094042993893E-17   -1.1612294242647762E-14  2.7190284390868022E-15   5.0936040012444405E-15   -1.6727111874085027E-15
1                        2                        1                        7.3549757281000625       20.53131848483649        311.0957551125001        629.5928460373445        -168.3019984574043       -281.2603244079633
1                        2                        2                        3.1918872215568494E-16   7.746762070473087E-16    3.5060078006272923E-15   1.3029855437341364E-14   -2.103862989335903E-15   -6.0112021200962205E-15
1                        2                        3                        -1.303088761289691E-16   -4.750225998603315E-16   -1.2289742112931749E-14  -2.436662217172461E-14   6.472329324232592E-15    1.059851786675811E-14
1                        2                        4                        -8.311722716233294E-18   -9.510432739033202E-17   -1.7053765518042307E-15  -7.283239126662308E-15   1.0491256347083585E-15   3.194712016626381E-15
2                        1                        1                        1.2768652163097553E-15   -1.0097406130573896E-15  3.2582646163652484E-14   -4.1430884017083337E-14  -1.2664454023809958E-14  2.214926146015825E-14
2                        1                        2                        -1.1520234404313001E-16  1.0739045542912687E-16   -2.097971007161947E-15   1.193146363389014E-15    9.328035863689257E-16    -7.151498352043093E-16
2                        1                        3                        4.787304762197877        -2.7892653895595227      194.39497108381312       -253.99009166081504      -72.5486653846163        132.02675626422936
2                        1                        4                        -1.918520367733869E-16   3.2658885641566745E-17   -1.39628560991148E-14    6.776946532946403E-15    5.936786131923021E-15    -4.170777545793582E-15
2                        2                        1                        -1.7448887553221904E-16  -2.2064951426042112E-16  -7.159490537432269E-15   -5.630465109006708E-15   3.827517360472957E-15    2.1884891161865615E-15
2                        2                        2                        2.623678752487273E-16    2.814532642542121E-16    2.9150009185846854E-15   5.1255969935441076E-15   -1.7471975698146036E-15  -2.2789520167526376E-15
2                        2                        3                        -9.987300129176815E-16   -1.7141520361913303E-15  -9.094420648348723E-14   -6.960545694526907E-14   4.727376766757689E-14    2.5976922019710086E-14
2                        2                        4                        -6.2627124454632E-19     -3.6789808188080096E-18  -1.299556508448822E-16   -2.677536325826653E-16   7.997939896055364E-17    1.1384462042760831E-16
3                        1                        1                        1.0212780164820957E-16   -1.4706751855605896E-16  1.4342857309127597E-15   -5.717821173126899E-15   -1.5484915832795598E-16  2.9892973726066082E-15
3                        1                        2                        -0.31219933172807784     0.5623385615453717       -6.759988996542963       6.3706558266135005       2.7849553491382504       -3.811176749933468
3                        1                        3                        -2.8297889456974004E-16  2.7619660391042704E-16   -5.5956968888899926E-15  2.3644767510112614E-14   3.5446531386414805E-16   -1.1993203634401827E-14
3                        1                        4                        -4.148820903490919E-16   1.013928893355385E-16    -2.7706710842458723E-14  2.1450399835446692E-14   1.1103797295179232E-14   -1.3210689536676237E-14
3                        2                        1                        -1.0001763114542019E-15  -6.945504279422128E-16   -3.888574001007069E-14   -9.75428582742717E-15    2.0329604043985864E-14   1.0530976624476722E-15
3                        2                        2                        2.8102133672999335E-16   1.5601753023550143E-16   3.1836518757027666E-15   3.378216032118906E-15    -1.904585703385877E-15   -1.3917449886394148E-15
3                        2                        3                        -3.2041595918246E-16     -3.282841014276209E-16   -2.743031867208686E-14   -6.491573613065774E-15   1.3913327650620019E-14   4.1121556868323916E-16
3                        2                        4                        1.3087397400583867E-18   5.3551356770642264E-18   2.76873367441712E-16     3.576273817986099E-16    -1.7051841113944676E-16  -1.4332347052228597E-16
4                        1                        1                        -10.196065100648982      28.305829662246346       145.1116824675428        1012.6343965647859       -194.84864733657474      -509.6660971996067
4                        1                        2                        -9.037086212032553E-17   3.7280363345002913E-16   -2.9498732207026705E-15  4.344173828472893E-15    1.0399543111386924E-15   -2.5920593440315343E-15
4                        1                        3                        -2.2430241099806197E-17  3.5018830235996425E-17   4.173749291968869E-16    2.7286120188970202E-15   -5.437113187110911E-16   -1.3275971922531601E-15
4                        1                        4                        -4.3195220149311647E-16  1.3243346753018535E-16   -2.5506731110193293E-14  2.881577843339642E-14    9.226371161090052E-15    -1.77659245924617E-14
4                        2                        1                        1.6772342087715115E-14   6.0415784966301386E-15   6.000265921057738E-13    -8.598450595742545E-14   -3.0199765330121126E-13  1.1545565727722775E-13
4                        2                        2                        4.015737518487686E-16    9.734499050788429E-17    4.679423767523702E-15    3.177521757921284E-15    -2.792094557035501E-15   -1.120209989941405E-15
4                        2                        3                        8.134003425187359E-17    5.209987218422318E-17    6.3378871761651805E-15   -9.694581688579717E-16   -3.0836781343867656E-15  1.2629061847214159E-15
4                        2                        4                        -8.50324176764127E-18    -2.7734635888227193E-17  -1.8501934240063587E-15  -1.6377272707420022E-15  1.1407082730159463E-15   5.924036128049043E-16
5                        1                        1                        -4.200844639678631E-17   3.606787316097552E-16    6.142993449324893E-15    1.1405554264518939E-14   -4.83260216301772E-15    -5.3753307247601496E-15
5                        1                        2                        -0.0019018776275121214   0.31677851039968363      -1.622441066090676       3.833739813567984        0.38475681662022443      -2.2800902890700234
5                        1                        3                        -1.3268264958080068E-16  3.5099877582939017E-16   1.2932554663774621E-14   2.3849116309289748E-14   -1.0127819065802634E-14  -1.0801138638144833E-14
5                        1                        4                        5.495312175282606E-17    -1.948630444772252E-17   2.755203029783669E-15    -4.403726582859477E-15   -8.301082251445228E-16   2.7192877825175108E-15
5                        2                        1                        3.314028605375028E-16    3.859866990365186E-17    1.0479778756028756E-14   -5.64437385111472E-15    -4.939021412686585E-15   4.440345493912601E-15
5                        2                        2                        7.153532277489878E-17    4.2948440471964457E-19   8.657399602426201E-16    3.663816879503361E-16    -5.148928649835283E-16   -8.688626962834402E-17
5                        2                        3                        3.181935354471917E-16    1.2028179090627302E-16   2.1620117100993423E-14   -1.1723845136121116E-14  -9.791636685926021E-15   9.181247277230684E-15
5                        2                        4                        -2.0039892642267343E-16  -5.651428998445271E-16   -4.5288324517092745E-14  -2.833475843144217E-14   2.7965402763507257E-14   8.536908451833157E-15
6                        1                        1                        2.7258700913637456E-16   3.1531371446198005E-15   8.684883229243069E-14    8.289759183833431E-14    -6.054670132415553E-14   -3.4436988799798224E-14
6                        1                        2                        -2.8390698878973305E-17  -1.42518960335922E-16    4.1830279270445914E-16   -1.8111027567080516E-15  1.6514926162017576E-17   1.0731414370150372E-15
6                        1                        3                        0.1601589112746298       -0.9156183935449325      -52.86431145611462       -50.96337076855934       36.70219020336842        20.13448690873319
6                        1                        4                        -2.6682416805223656E-18  1.033181202793758E-18    -1.0841407854160265E-16  2.452390123687941E-16    2.2402718550022018E-17   -1.5176898838075835E-16
6                        2                        1                        -2.3768668898420805E-16  2.0547886339764073E-17   -6.2489048922077315E-15  6.546753421366289E-15    2.5958952849198315E-15   -4.56407200401068E-15
6                        2                        2                        8.668765090080635E-16    -1.7268740856955857E-16  1.1016095202315158E-14   2.544341214647544E-15    -6.52741993347582E-15    1.0045260997295484E-16
6                        2                        3                        -1.8913099013656697E-15  -3.308257422776433E-16   -1.0527041442284617E-13  1.0919701525228228E-13   4.1589984122186374E-14   -7.581238671313958E-14
6                        2                        4                        -1.3250548925825678E-16  -3.4220199552770634E-16  -3.145190333648663E-14   -1.3904105573045827E-14  1.946437275994815E-14    2.873148654070296E-15
7                        1                        1                        1.668701901821884E-15    6.157780148663588E-15    2.3009571793521E-13      1.2073713702576205E-13   -1.5146876489603692E-13  -3.652886586073801E-14
7                        1                        2                        0.08075919881158705      0.2041590264115618       -0.2096666234615687      2.7589740263796          -0.27932146866891444     -1.6282966413140243
7                        1                        3                        3.8396741508247386E-18   -7.950249159312337E-16   -6.03026325187338E-14    -3.2642651720905E-14     3.952891042561376E-14    9.197478747491548E-15
7                        1                        4                        3.311661616176123        -1.3383719829826781      102.98645187196321       -338.0802837722238       -5.3368869871487705      209.86555245630453
7                        2                        1                        6.543103056806901E-16    -1.7731208732850712E-16  1.282922597543559E-14    -2.4449395058206728E-14  -3.881465854679287E-15   1.6094691831549585E-14
7                        2                        2                        1.5057672274987058E-15   -5.9563643609994505E-16  2.0348709256166564E-14   1.546388302635151E-15    -1.2009440690670027E-14  2.060124995928078E-15
7                        2                        3                        -1.5716316478714978E-15  -7.590395335144397E-18   -6.452907762628972E-14   1.1920824595070756E-13   1.8181881335563775E-14   -7.814206245012429E-14
7                        2                        4                        -1.2580740586094358E-15  -3.1129727931952745E-15  -3.1779657685104695E-13  -9.680760292110663E-14   1.972743084139447E-13    5.0166912919242475E-15
8                        1                        1                        -8.384574326495487E-17   -1.865197333075625E-16   -8.744324799135459E-15   -2.1180760599216336E-15  5.5466949839459865E-15   -4.238539611625014E-17
8                        1                        2                        5.2336747652139E-16      8.746975965366677E-16    6.924328889908928E-16    1.275893235496362E-14    -2.3182007664196115E-15  -7.500434920263745E-15
8                        1                        3                        1.7997174748763838E-17   1.2418021277363202E-16   1.1386504290762847E-14   3.005351909827034E-15    -7.193737139670742E-15   5.5047267390852097E-17
8                        1                        4                        -3.3284158491124754E-16  1.3505253917179015E-16   -7.337725472848101E-15   3.6884716277055466E-14   -1.6326242425517877E-15  -2.2991071107265615E-14
8                        2                        1                        4.289615967999085E-15    -1.9283002006301955E-15  4.871191228363138E-14    -2.011036292090932E-13   9.747873253338484E-16    1.2756393626850693E-13
8                        2                        2                        -1.4961463575641124E-16  8.952057794194533E-17    -2.1823805444370437E-15  1.1843875514947527E-16   1.2829289151646695E-15   -3.965219118584045E-16
8                        2                        3                        1.5221206962712569E-15   -2.205977228398906E-16   3.683765907099557E-14    -1.3956840185607492E-13  6.74733784724869E-16     8.817617508575641E-14
8                        2                        4                        -1.9595239912535562E-16  -4.829313650250776E-16   -5.351731029998168E-14   -1.0646559623108305E-14  3.3358540088369676E-14   -2.368830968774802E-15
9                        1                        1                        -1.4879215949975339E-15  -2.361459782169425E-15   -1.330202445147756E-13   -2.9965034826416402E-15  8.195541916248336E-14    -1.8320621509023284E-14
9                        1                        2                        0.11168479227367624      0.13587126249036874      0.3617914824931301       2.177679748660737        -0.5513093062045297      -1.2756156759111688
9                        1                        3                        -4.060696920799534E-16   -1.44736068825835E-15    -1.5259746483570907E-13  -7.584774752310209E-15   9.369533745708054E-14    -2.0166927128167678E-14
9                        1                        4                        3.043746725897343E-17    -1.1960564418163484E-17  4.2297582046654455E-16   -3.601292748155983E-15   3.3078511464969615E-16   2.256903824637633E-15
9                        2                        1                        4.572242164326656E-15    -2.8809035433212706E-15  5.801809402821826E-15    -2.5755288117231656E-13  3.547226117158774E-14    1.5868151806501628E-13
9                        2                        2                        -1.0884222800389822E-16  8.946720154353588E-17    -1.7444712839335093E-15  2.898198655491607E-16    1.0218559075698956E-15   -4.4163667950708965E-16
9                        2                        3                        -9.138955012815171E-16   2.5640137099840034E-16   -4.789194276597066E-15   9.635340917425109E-14    -1.2733843143877782E-14  -5.916130518578626E-14
9                        2                        4                        7.10989107084176E-17     1.8093383315144924E-16   2.1407684669982348E-14   2.514356266086297E-15    -1.3416039402246448E-14  1.9663337371450996E-15
10                       1                        1                        2.568218523342313E-15    3.1371282607785896E-15   2.0670132589134757E-13   -3.44333940925858E-14    -1.240754724857471E-13   5.303557050094978E-14
10                       1                        2                        -8.318870040597942E-16   -7.669207051742515E-16   -3.626956709082084E-15   -1.38028732105863E-14    4.3729503756728614E-15   8.06274854703378E-15
10                       1                        3                        -0.2215993829861435      -0.5475618483440071      -64.10035247754783       8.515661388510196        38.38370013891871        -15.717919762453741
10                       1                        4                        1.1048127163361368E-17   -4.054818194258913E-18   7.698877734870074E-17    -1.3793976221559907E-15  1.7743894705022284E-16   8.703602647851381E-16
10                       2                        1                        1.0763912241215653E-14   -8.811905827166948E-15   -1.1814564193313024E-13  -7.092202635778603E-13   1.8197223035992153E-13   4.257197621746995E-13
10                       2                        2                        -4.773934188037308E-16   5.178336929050704E-16    -8.592023643396538E-15   2.25771093606166E-15     5.018906215406096E-15    -2.7220776750615436E-15
10                       2                        3                        -3.909915529742215E-15   1.5823506907056687E-15   6.080686010442979E-14    4.577144378618203E-13    -1.1223524568219057E-13  -2.740823264310524E-13
10                       2                        4                        2.5342613714199557E-17   6.90507947718646E-17     8.621235138733047E-15    4.811798584294092E-16    -5.439751655068544E-15   1.1089934190977497E-15
11                       1                        1                        4.519379672837712E-15    4.429395866006062E-15    3.353442380538165E-13    -1.1413086621687924E-13  -1.9625011771003524E-13  1.2387312038043982E-13
11                       1                        2                        0.12415617582592563      0.0877714588682898       0.6303472802078469       1.823145702536912        -0.6801009680587655      -1.063195098640604
11                       1                        3                        -1.0533525956647533E-15  -2.0340040246995E-15     -2.573621457143543E-13   7.682720853036738E-14    1.5046730171158325E-13   -9.04532946424658E-14
11                       1                        4                        -1.6223952045718751E-15  5.346032780742524E-16    -2.3716806784896112E-15  2.1207820509857069E-13   -3.301308851481977E-14   -1.349261404320846E-13
11                       2                        1                        -1.0851224647947765E-14  1.1071668819721574E-14   2.79600131954846E-13     8.215331777746973E-13    -3.034669055918788E-13   -4.807775549566311E-13
11                       2                        2                        1.2100483607984354E-15   -1.7116609314464338E-15  2.5134531171714942E-14   -8.690190444369178E-15   -1.465758348950595E-14   9.37611237403973E-15
11                       2                        3                        -8.031630241909124E-17   4.1593519286129534E-17   3.0336603269160497E-15   1.0162406600476136E-14   -3.571710812345567E-15   -5.941471679214339E-15
11                       2                        4                        -9.999061312175474E-17   -3.034479919707383E-16   -3.966647910309318E-14   -4.43592126628047E-16    2.523618552606219E-14    -6.174670259604096E-15
12                       1                        1                        1.3750626923081978E-14   1.1088663887127337E-14   9.529233954574535E-13    -4.832071642176705E-13   -5.433133671748725E-13   4.579936103047824E-13
12                       1                        2                        -4.000843405817754E-15   -2.148838244802029E-15   -2.2221317488838194E-14  -5.3414988995572314E-14  2.253878218969546E-14    3.1141368092857594E-14
12                       1                        3                        2.448281995275594E-15    3.952468992678039E-15    5.28707990452563E-13     -2.4073177650083646E-13  -3.0175413239165375E-13  2.405784419566961E-13
12                       1                        4                        -7.855705214805748E-16   2.2173720370008137E-16   1.998928456577918E-15    1.0701040795694732E-13   -1.860225348338724E-14   -6.874206189225225E-14
12                       2                        1                        -1.1409491015883425E-14  1.4148472344586007E-14   4.971877455466964E-13    9.804942263186202E-13    -4.7124469055825E-13     -5.590329948147949E-13
12                       2                        2                        -1.6024386009890745E-15  2.983521875360245E-15    -3.9832798233486874E-14  1.6570952697372094E-14   2.3222841664648786E-14   -1.6807693500382924E-14
12                       2                        3                        4.809358462621453E-15    -2.9790659345373517E-15  -2.9292207193487574E-13  -6.43331105895833E-13    2.9273549468010987E-13   3.6717398489141805E-13
12                       2                        4                        1.2066914124042005E-16   4.2750660976862043E-16   5.823494576943017E-14    -1.0878146580166946E-15  -3.740935412539432E-14   1.0123325791522613E-14
13                       1                        1                        2.4523619686836654E-14   1.6528439888416376E-14   1.5989650904950308E-12   -1.074658645040445E-12   -8.867066671873879E-13   9.484978879394054E-13
13                       1                        2                        0.12818504340183118      0.05062459928097932      0.7526058467090389       1.5860948764293392       -0.7356272356815797      -0.925837235519051
13                       1                        3                        5.167521655247181E-15    7.29411270973471E-15     1.0121919804673899E-12   -6.156763539914179E-13   -5.633578277493346E-13   5.653609234281095E-13
13                       1                        4                        1.3542467546880765E-16   -3.076638186931874E-17   -6.887984625749508E-16   -1.9183471806792966E-14  3.5323917918398156E-15   1.2457798303172736E-14
13                       2                        1                        -4.5421854595232336E-15  6.739343187307567E-15    2.953272604412857E-13    4.3941206991945075E-13   -2.6065698542148303E-13  -2.4367612173025905E-13
13                       2                        2                        -1.4214567088654122E-15  3.599228290349987E-15    -4.4534973810088295E-14  2.113195255155061E-14    2.5996009223164297E-14   -2.0655220668606715E-14
13                       2                        3                        6.09396317427192E-15     -4.317274482063231E-15   -5.143749730743193E-13   -8.456492104572017E-13   4.723382794763434E-13    4.706647665925217E-13
13                       2                        4                        2.334001383156289E-16    1.027359607029652E-15    1.4552978612895926E-13   -5.225367650262949E-15   -9.450743540847565E-14   2.6797454975804715E-14
14                       1                        1                        -4.9909968738373735E-15  -2.836699974953261E-15   -3.0733749434446614E-13  2.5802496531270704E-13   1.65340535397466E-13     -2.1807374276609861E-13
14                       1                        2                        -1.3624783190394718E-15  -3.6879644962983254E-16  -8.275833509874905E-15   -1.5837492588391314E-14  7.905073314717151E-15    9.268792684296123E-15
14                       1                        3                        -0.3213847752277084      -0.40968574082433684     -58.01200217337262       44.1574007594436         31.427875405141872       -38.53047281362137
14                       1                        4                        -6.120795554444268E-16   1.0173475231703181E-16   3.85302262392083E-15     9.015741423751084E-14    -1.692778802594456E-14   -5.924078605617093E-14
14                       2                        1                        -7.48042260222944E-15    1.316133752399922E-14    6.804159056761606E-13    8.104538228796581E-13    -5.750639012965134E-13   -4.360056011772025E-13
14                       2                        2                        -6.166153667683658E-16   2.27801831945755E-15     -2.6479759530337136E-14  1.3836917682501054E-14   1.5497112314253473E-14   -1.3217018998862336E-14
14                       2                        3                        -8.756913346799231E-16   6.869505934577906E-16    9.438515758949022E-14    1.2399896444030178E-13   -8.235776304469151E-14   -6.717616801168061E-14
14                       2                        4                        8.477896026683623E-17    5.100662962285479E-16    7.513117853679847E-14    -3.210852189280334E-15   -4.93673217167735E-14    1.4106490024167016E-14
15                       1                        1                        -7.151927784340496E-15   -3.4382182968523807E-15  -4.16316401218403E-13    4.220390267529714E-13    2.1645610087508597E-13   -3.4655477745229254E-13
15                       1                        2                        0.12768814487189037      0.020227128478429        0.7909203613736876       1.4072793132798815       -0.74444516397947        -0.8266316621142787
15                       1                        3                        2.9223186426496406E-15   3.446140003943242E-15    4.906995576908255E-13    -4.504292611290368E-13   -2.580124167596933E-13   3.799406040862961E-13
15                       1                        4                        -1.3284794719479872E-15  1.3439339828674812E-16   8.466712816058415E-15    2.0377223913202725E-13   -3.791876057139414E-14   -1.3554767290428883E-13
15                       2                        1                        -1.6784958901649624E-14  3.4914831918452596E-14   2.0603426274151683E-12   2.0324054730394346E-12   -1.691837805135829E-12   -1.0567120651197297E-12
15                       2                        2                        8.316243972122791E-16    -5.249809760360856E-15   5.785931561919002E-14    -3.2518143615510965E-14  -3.398638904732647E-14   3.0607348019671426E-14
15                       2                        3                        -3.0340378750679965E-15  2.5728570038627528E-15   3.9656526920551064E-13   4.320198951588498E-13    -3.345059056783843E-13   -2.2715834055131548E-13
15                       2                        4                        2.7567876573309672E-17   2.7250860964190115E-16   4.179943367108298E-14    -1.7367616050105068E-15  -2.7804650853918896E-14  7.778207298257403E-15
16                       1                        1                        -7.940565109621949E-15   -3.217675532894079E-15   -4.360701340982806E-13   5.2339750064506E-13      2.1790211089990018E-13   -4.210461130963682E-13
16                       1                        2                        -1.2870428694882704E-16  -6.987748539527176E-18   -8.052985145970119E-16   -1.3528496989038503E-15  7.505544380280054E-16    7.980634956790132E-16
16                       1                        3                        3.0761454004548775E-16   3.415320607114472E-16    4.825310396084778E-14    -5.2274897708405357E-14  -2.451771756414585E-14   4.3042900480241714E-14
16                       1                        4                        7.598141602719851E-16    -2.556869731407796E-17   -4.2287090578524084E-15  -1.216637277830528E-13   2.1973768631660655E-14   8.193751373657695E-14
16                       2                        1                        8.478054086224678E-15    -2.092210348479343E-14   -1.3790676760537865E-12  -1.1489742032901225E-12  1.1093883405381993E-12   5.741367836772849E-13