% Model:              GenSignalFourierDec.mph
% Version:            COMSOL 4.3.2.189
% Date:               Nov 25 2013, 12:03
% Table:              Probe Table 1 - 
% n                      C1(X), C1(Xj)            C2(X), C2(Xj)            C3(X), C3(Xj)
1                        0.10134465912665826      0.24831852524909606      0.03563288286410657
2                        0.11060692827940088      0.12472123687490969      0.07756245912526288
3                        0.25031717631918404      0.2877225467668814       0.17090992087863566
