% Model:              IncommensuratePeriodicSignals.mph
% Version:            COMSOL 4.4.0.150
% Date:               Feb 2 2014, 18:07
% Table:              Probe Table 1 - 
% l                      k                        , Gamma_lk11             , Gamma_lk12             , Gamma_lk21             , Gamma_lk22             , Gamma_lk31             , Gamma_lk32
1                        0                        -2.59551446923744        0                        -845.090233310403        0                        201.080507896101         0
1                        1                        -1.9817971845079336      2.321524594322473        -564.9840806795664       790.1196350253012        119.79507244087802       -203.73289728724444
1                        2                        -0.18208501763436047     4.3232843308155555       249.79780455862783       1357.2089035886665       -114.40845905142623      -332.74832916427954
1                        3                        2.6707510936030516       5.70542014938847         1520.267514508283        1502.669424592592        -472.5454640464204       -320.5141583060408
1                        4                        6.33889876882936         6.184561501494599        3103.7367363323137       1071.6252085022643       -904.6320524560797       -116.49526899029661
1                        5                        10.500737549695856       5.47178449056662         4784.332328098855        -47.823415101956925      -1336.938697441934       311.13936224394274
1                        6                        14.806204904431851       3.291082800606432        6290.67449981071         -1935.4990246117814      -1675.9464606944148      977.9290691310016
1                        7                        18.893319503807962       -0.560682390419629       7329.8132387167825       -4626.618941990018       -1819.2470706088143      1880.8883662666485
1                        8                        22.364146453501547       -6.183712468241424       7604.106157132679        -8085.711457471189       -1663.6390379670265      2991.2132126999495
1                        9                        24.77455364694319        -13.579362737444058      6816.5738198859035       -12192.796921394765      -1109.4368305569515      4249.361398971378
1                        10                       25.645300288936824       -22.655962670909503      4680.323186073394        -16740.999172654585      -65.16181287559448       5563.830496717375
1                        11                       24.479718150224812       -33.22772944720589       933.5874931641156        -21437.968729452346      1546.3028284899483       6811.835656088035
1                        12                       20.781257697585147       -45.010772635886156      -4642.695370636415       -25908.904663623485      3780.7536154982517       7841.076119881385
1                        13                       14.070236006805544       -57.61948532651286       -12206.68612469663       -29701.565196581476      6665.514393090329        8472.568168064667
1                        14                       3.9003349781153247       -70.56457953081815       -21837.679273091955      -32293.858971557784      10192.44517703401        8504.666850793765
1                        15                       -10.124783776377626      -83.25311770881038       -33518.85917235236       -33104.336973395984      14311.35430670029        7718.35031581317
1                        16                       -28.334643570843582      -94.9906268466857        -47121.19845592836       -31505.685952581756      18924.02398568322        5883.777081803128
1                        17                       -50.97494343263679       -104.98533008723075      -62388.923353401944      -26841.184757430223      23879.05167462281        2768.0764898822817
1                        18                       -78.19049502841699       -112.35453319470707      -78926.97537911637       -18443.988055265974      28967.704672115273       -1855.7073042144766
1                        19                       -110.00826282659455      -116.13321405517263      -96190.890403606         -5659.024489882402       33920.97619742283        -8198.63137442898
1                        20                       -146.3206876150207       -115.28487191639397      -113479.49268090725      12132.77081224788        38408.016954844585       -16444.973571200855
2                        0                        1.61132805650271         0                        170.618227648515         0                        -40.7833107239756        0
2                        1                        -0.7217069075954909      -3.1101920867151978      149.10466692326725       -166.55511827112605      -31.21589952314102       48.31970684448493
2                        2                        -6.795316781853511       -2.673984106719166       104.0691961258799        -323.6479214478395       -9.503654885436504       95.31575806387946
2                        3                        -14.012859078173681      4.132323589777723        28.088655161729548       -427.36593907485985      21.817600958530647       126.44161825258175
2                        4                        -18.27836865000745       18.72356248541392        -103.713384963723        -480.88146614538255      69.38496851569016        137.89292664799677
2                        5                        -14.538937431596302      40.69359888861015        -278.97831709327875      -491.90726374305723      130.12781624895297       130.69999613428058
2                        6                        2.495419704287908        67.37218724669864        -481.5753929883249       -453.7628617848768       198.21484317507202       102.60485398708028
2                        7                        37.58204643906017        93.60318817230856        -698.0460956972711       -358.1180038011389       267.9401176645688        50.867276141173306
2                        8                        94.08130478661187        111.7664723184258        -915.3028246537506       -198.39649102635667      333.45532395456394       -26.561358606109025
2                        9                        173.0567461597302        112.04378511204447       -1119.7006976280682      29.784080315923347       388.6049301729072        -130.77414475999376
2                        10                       272.40292011651684       82.9414985358025         -1296.9298322296745      328.5660431113429        426.95386506465184       -261.8315710974548
2                        11                       386.0630493195771        12.072688683853997       -1432.1864582754206      697.8636265361856        441.8915445410512        -418.7375090187488
2                        12                       503.3995474427889        -112.81198830064048      -1510.4169505629616      1135.4261931288347       426.75292804277524       -599.4506514915556
2                        13                       608.7796742761753        -302.568269573124        -1516.5410701305445      1636.9658947194112       374.9235765601816        -800.9272234916316
2                        14                       681.4357722593761        -565.2138479371553       -1435.593941008152       2196.345036101149        279.905053775577         -1019.186241852367
2                        15                       695.6543564488546        -904.3450777237226       -1252.738200503305       2805.7981888110226       135.3216830735164        -1249.380949457569
2                        16                       621.3408179278035        -1317.47658708139        -953.1049876398683       3456.145211083436        -65.146237500614         -1485.8519620394436
2                        17                       424.99669627024696       -1794.3768028792329      -521.4285737386672       4136.933355564077        -327.91331263239044      -1722.1293940520845
2                        18                       71.13447893859114        -2315.4823061520137      58.55588829726912        4836.426698666939        -659.7300169363734       -1950.8416066692298
2                        19                       -475.85915273427156      -2850.482156448381       804.9795811083168        5541.334581998468        -1068.0148548893267      -2163.4751589394
2                        20                       -1249.416587564262       -3357.1695035493403      1739.0001573664485       6236.127424072591        -1561.2723196975276      -2349.9095205343183
3                        0                        1.13278596347482         0                        858.287466141936         0                        -200.927620030446        0
3                        1                        0.7357191968124894       -1.3776457751446833      -64.43444739169172       -1320.1752210404889      64.09325807489404        321.86779239792884
3                        2                        -0.3900301648818427      -2.842781626089696       -2542.4172585457054      -1400.3137391822165      754.0748831044475        227.91234739221454
3                        3                        -1.9539358116314673      -4.349903316603331       -5604.3824033631245      627.2584851646097        1533.61431479776         -554.2536266770912
3                        4                        -3.826220481740849       -5.540144116989211       -7670.054174569108       5227.383094651916        1856.3151429200238       -2113.522089102742
3                        5                        -6.1246879864299615      -6.218942601387994       -6983.904022752744       12243.312330188346       1114.8657926924643       -4298.0067065817275
3                        6                        -8.874785029864029       -6.3435879012880605      -1832.3419188530534      20617.251514516713       -1245.4363172724406      -6626.9048497050535
3                        7                        -12.01854874797391       -5.866259573671755       9208.011914803763        28375.021000434353       -5616.810727308242       -8286.026836960606
3                        8                        -15.466780579131864      -4.724050748114735       26926.321063960437       32708.07229049316        -12093.261871150637      -8173.245811744004
3                        9                        -19.11182995881836       -2.8563678443658773      51131.55970555032        30140.43743147177        -20337.07146879728       -4985.00816589169
3                        10                       -22.830635462146347      -0.22051165556194974     80343.00489627803        16798.906186397653       -29464.79816774919       2652.862620865868
3                        11                       -26.4914021212644        3.1940679520139383       111544.44199097157       -11214.96304577263       -37965.85459977458       16012.452029100386
3                        12                       -29.968992221858116      7.353485286241266        140028.59373355098       -57363.9339206256        -43665.624554149224      36056.11144077452
3                        13                       -33.171385017091325      12.173128864813407       159355.24774108035       -124145.87928304635      -43743.257487617084      63204.23640745832
3                        14                       -36.07717569511715       17.524030701715674       161440.94984255452       -212522.43753799237      -34811.49418280742       97091.23527541105
3                        15                       -38.78074310547436       23.26020181228523        136790.83578495122       -321334.90320043266      -13062.472891462035      136323.74719790788
3                        16                       -41.537316856876714      29.27556826025466        74875.27633550763        -446736.98854591325      25520.068549230695       178255.13649215642
3                        17                       -44.79501914766661       35.597711181901104       -35353.21011991426       -581671.1843567938       84884.85391470324        218788.8918906171
3                        18                       -49.19553368517518       42.52208311228969        -204812.46561412513      -715409.5570066907       168578.04072601348       252220.97248958144
3                        19                       -55.51998117315088       50.78448240837679        -443523.9813326448       -833171.6103265025       279354.05093800277       271127.7694132067
3                        20                       -64.55236849791254       61.76123170239225        -759735.2745798081       -915822.4268494789       418735.3054674752        266302.8094216292
4                        0                        -0.14859955074014147     0                        -178.81546048009093      0                        41.6304228583284         0
4                        1                        -0.1598922477122272      0.027779146412473033     -179.94975471272764      61.83818202649809        41.28370387919352        -18.766628796569307
4                        2                        -0.19151401032742332     0.043977739145177885     -185.02077823326135      125.18224660405713       40.78287563116692        -38.43295705017238
4                        3                        -0.23527274059996284     0.037546462437811456     -197.70210000392103      188.26719199005947       41.49422184608517        -59.00980609599185
4                        4                        -0.27490657208417835     0.0032212187960878325    -219.1563393272338       244.81706633473004       44.480130662983356       -78.97617386245474
4                        5                        -0.2931301428264175      -0.05006849755925202     -243.9053767999485       288.86889339391564       48.96116406716749        -96.23006886496523
4                        6                        -0.2857130111947601      -0.10413306728092664     -263.722549109747        321.17226259222844       52.761860566415066       -110.17406014540484
4                        7                        -0.2612937659087917      -0.14670377618001496     -274.59528282195424      347.33410731118965       54.34008900901222        -121.88964429437237
4                        8                        -0.23012839263964846     -0.1755928420808388      -277.14840994802125      372.2507286877535        53.43151853831273        -132.70838387923868
4                        9                        -0.19840956798797205     -0.19348865776280277     -273.55888455852255      398.3018571120083        50.409307920784045       -143.44514876345602
4                        10                       -0.16874641697240467     -0.20370068181064482     -265.73968213137596      426.17386195317704       45.72994528384197        -154.4448654388193
4                        11                       -0.14187152377370715     -0.20876248628713512     -254.97133446986572      455.82473576013035       39.74717845105124        -165.8026360779827
4                        12                       -0.11775283009504989     -0.21035654217901723     -242.03496517073836      486.9916567433138        32.700791193682335       -177.51007578513781
4                        13                       -0.09611515730160569     -0.20954997695681854     -227.39603322920084      519.3895571134271        24.74739737649793        -189.5247737082218
4                        14                       -0.07664768310148062     -0.20701681422202256     -211.3348885840478       552.771882398305         15.989855687469571       -201.79836982129018
4                        15                       -0.059073724427843644    -0.20319084593760195     -194.02573784791275      586.9404921512432        6.497644724067868        -214.28637961665208
4                        16                       -0.04316602095806843     -0.19836101991282007     -175.581931052051        621.739895717179         -3.680320675302937       -226.95074969120014
4                        17                       -0.028742663778853483    -0.1927288546003929      -156.08157158312497      657.0484272264548        -14.507880685835062      -239.75978915188534
4                        18                       -0.015657642269520267    -0.18644252688568486     -135.5820235938627       692.7703008824064        -25.956910037892158      -252.68732216174976
4                        19                       -0.0037912119867655747   -0.17961698681880023     -114.12818528782373      728.8294261324882        -38.00446527687291       -265.7117495140019
4                        20                       0.0069582375329240165    -0.17234577568035547     -91.75723184959861       765.1648887978736        -50.631064221182896      -278.81524619689844
