% Model:              GenSignalFourierDec18_C44.mph
% Version:            COMSOL 4.4.0.150
% Date:               Dec 12 2013, 09:43
% Table:              Probe Table 1 - 
% n                      C1(X), C1(Xj)            C2(X), C2(Xj)            C3(X), C3(Xj)
1                        0.25883402967483915      0.9978139136400714       0.056499565671467716
2                        0.09951983496491461      0.1053168145718731       0.07821886600237281
3                        0.4265706751794404       0.455499405719812        0.32946328737968594
