% Model:              IncommensuratePeriodicSignals.mph
% Version:            COMSOL 4.4.0.150
% Date:               Feb 4 2014, 05:28
% Table:              Table 4 - Global Evaluation 10 (u(t))
% Time (s)               C1(z)                    C2(z)                    C3(z)
0                        1.0000003229465044       1.0000000712576738       1.0000005804101728
0.0125                   1.0000247186753812       1.0000245384254456       1.0000279635628924
0.025                    1.0114430782534323       1.0114434362609166       1.0115858260742832
0.037500000000000006     1.155511604696239        1.155504288867475        1.1558354778190143
0.05                     1.6204964319684045       1.6204645883703057       1.62083405502375
0.0625                   2.462967048018806        2.4629468707031354       2.463241549663995
0.07500000000000001      3.621929793899899        3.622153654724561        3.622191732191642
0.08750000000000001      4.996292362762779        4.997488405418172        4.9967052086555865
0.1                      6.489329339096722        6.493132857564122        6.490152327965473
0.1125                   8.023380492224607        8.032738071765634        8.024963010899839
0.125                    9.541259524546021        9.560721856544           9.544081777818546
0.1375                   11.00357946969406        11.039433033674763       11.008341982637011
0.15000000000000002      12.3846658308337         12.444888305120372       12.392406306332896
0.1625                   13.668878160624661       13.762933744149683       13.681080432347729
0.17500000000000002      14.847838167575645       14.986351116383345       14.866500743519316
0.1875                   15.91821193904539        16.112567224415066       15.94585318157581
0.2                      16.88018339533622        17.14210525550075        16.91977690238407
0.21250000000000002      17.736342593203112       18.077495230665843       17.79118745233519
0.225                    18.490887428932886       18.92252762112029        18.564427533292534
0.23750000000000002      19.14908788879938        19.681782530240913       19.24469947049882
0.25                     19.71688925439917        20.360294088012903       19.83765614629586
0.2625                   20.2006436487303         20.96332733585087        20.349138246248092
0.275                    20.606915534129023       21.49620795380285        20.78499895650165
0.28750000000000003      20.94234059455128        21.964186450580673       21.150990718845225
0.30000000000000004      21.213524205488337       22.37233105646059        21.452695349417983
0.3125                   21.42696326429917        22.725444390493088       21.695477245272027
0.325                    21.588986832602973       23.028010202216223       21.884452476851994
0.3375                   21.70570884443441        23.28417099750352        22.02446591373008
0.35000000000000003      21.782989604549197       23.497735114013654       22.12007350427343
0.36250000000000004      21.826404088371998       23.672207263394377       22.175529207501896
0.375                    21.841215225054448       23.810832142799974       22.19477684294622
0.3875                   21.83235147093646        23.91663961199141        22.181448236380326
0.4                      21.804387997840028       23.992480854398156       22.138868524975244
0.41250000000000003      21.76153124243509        24.04104856592792        22.07006900051474
0.42500000000000004      21.707606660318728       24.064879610549806       21.97780677621892
0.4375                   21.64604965762029        24.066343635720973       21.86458966818309
0.45                     21.579899751935137       24.047625075948062       21.732703917995785
0.4625                   21.511798035514715       24.010707516514294       21.584242007802576
0.47500000000000003      21.443988028392774       23.95736825280162        21.421127933521145
0.48750000000000004      21.37832001763346        23.889187673419126       21.245137809837953
0.5                      21.31625890662454        23.807573348313884       21.057914622252817
0.5125000000000001       21.258895589852926       23.713794460376562       20.86097696996198
0.525                    21.20696179332835        23.609019167724238       20.65572268835071
0.5375                   21.160848256279156       23.49434669450655        20.443429069230987
0.55                     21.120626071848417       23.37082752465643        20.22525185105749
0.5625                   21.08607094353714        23.239468460082197       20.002225209987483
0.5750000000000001       21.056690045352457       23.101223749871114       19.775264573867755
0.5875                   21.03175115272845        22.956977239380702       19.54517335481231
0.6000000000000001       21.01031366747569        22.80752290026599        19.312653793916976
0.6125                   20.991261139286784       22.65355127483389        19.078321182748905
0.625                    20.973334881521552       22.4956474211226         18.842719995394884
0.6375000000000001       20.955168263346142       22.334302370725855       18.60633999333515
0.65                     20.935321263213137       22.169935945376356       18.369630335775806
0.6625000000000001       20.912314868557257       22.00292545314738        18.133010064301875
0.675                    20.88466490199387        21.833632973511392       17.896873974272232
0.6875                   20.850914857705575       21.66242435777986        17.66159373833877
0.7000000000000001       20.80966732401855        21.489675383060902       17.427514966841006
0.7125                   20.75961357940124        21.31576429778609        17.19495165311915
0.7250000000000001       20.699560957710233       21.141053922042833       16.964179842031637
0.7375                   20.628457594440945       20.96586941898693        16.73543242976051
0.75                     20.5454141955134         20.790479096416277       16.50889670846082
0.7625000000000001       20.449722523334028       20.61508460430126        16.284715642969275
0.775                    20.340870315503043       20.439824198038078       16.06299311389159
0.7875000000000001       20.218552457283348       20.26478869227006        15.843802480866302
0.8                      20.082678267043104       20.090046008936167       15.627197170733597
0.8125                   19.9333748347069         19.915667607244334       15.41322156112371
0.8250000000000001       19.770986423002018       19.741749397653454       15.20192034519541
0.8375                   19.596070022937514       19.56842131438409        14.993344859445607
0.8500000000000001       19.40938717286763        19.395842812522638       14.787555392783899
0.8625                   19.211892267304133       19.224185881319592       14.584619324852332
0.875                    19.004717572450307       19.05361069387297        14.384605701191
0.8875000000000001       18.789155226139226       18.884241307806967       14.18757754670943
0.9                      18.566636528447493       18.71614893558394        13.993583646424417
0.9125000000000001       18.338708860785705       18.5493481551625         13.80265160092727
0.925                    18.10701058243913        18.38380782693826        13.614783721424486
0.9375                   17.87324430932537        18.219473921895315       13.429956724346127
0.9500000000000001       17.63914897694875        18.056298028101548       13.24812543856222
0.9625                   17.40647112951717        17.894263356883876       13.069229929744653
0.9750000000000001       17.176935896833424       17.733400575157102       12.893204750731716
0.9875                   16.95221813587937        17.5737885439808         12.719988595234422
1                        16.73391422844317        17.4155392862405         12.549532512379363
1.0125                   16.523515019377456       17.25877130894619        12.381805116973137
1.0250000000000001       16.322380369021257       17.103578842163515       12.216793803839336
1.0375                   16.13171576775014        16.95000613072632        12.05450174432391
1.05                     15.952551415601349       16.798034747979703       11.894941280942609
1.0625                   15.78572412947538        16.647588449540823       11.738125036305398
1.075                    15.631862375463516       16.498555052005283       11.584056546080845
1.0875000000000001       15.491374653147433       16.35081967342447        11.432722326027212
1.1                      15.36444140713594        16.204300132049998       11.284087019367036
1.1125                   15.251010572198838       16.058974085245218       11.138092692249455
1.125                    15.150796791681465       15.914889396433729       10.994662520692513
1.1375                   15.063284321061868       15.772153512961866       10.853708270900436
1.1500000000000001       14.987733551196063       15.630903714810879       10.715140160049353
1.1625                   14.923191058975858       15.491265805598646       10.57887720518964
1.175                    14.868503054684565       15.35331267824785        10.444856024541632
1.1875                   14.82233205104567        15.217035136386482       10.31303630203846
1.2000000000000002       14.783176528833161       15.082334642792189       10.18340176163558
1.2125000000000001       14.749393354590433       14.949042323223894       10.055956314291613
1.225                    14.719222620069736       14.816960998930083       9.930716052450455
1.2375                   14.69081455149399        14.685920287990722       9.807698570079863
1.25                     14.662258078472613       14.555830100997728       9.686911670711938
1.2625000000000002       14.631610607999901       14.426716757346373       9.568343720551004
1.2750000000000001       14.596928513187912       14.298729265108618       9.451957631795715
1.2875                   14.55629782860276        14.172109717616031       9.337689859698111
1.3                      14.507864625696753       14.047131282174789       9.225454783390708
1.3125                   14.449864561385336       13.924015673702534       9.11515383045908
1.3250000000000002       14.380651109604612       13.802848575179997       9.006687725879681
1.3375000000000001       14.298722022836598       13.683513761232456       8.899969553871307
1.35                     14.20274362377827        13.565663803591349       8.794936071269378
1.3625                   14.091572555752258       13.448738402483308       8.691554901913593
1.375                    13.964274707077875       13.332030331049731       8.589825984025557
1.3875000000000002       13.820141045770239       13.214788560443631       8.489776671972866
1.4000000000000001       13.658700157372925       13.096338977543311       8.3914511124636
1.4125                   13.47972731993707        12.976198348632622       8.29489568062878
1.425                    13.283249984970976       12.854157909377301       8.200143122491244
1.4375                   13.069549556432674       12.730318692685906       8.107198486443398
1.4500000000000002       12.83915942739861        12.605071339365384       8.01602975370437
1.4625000000000001       12.592859244535322       12.479024611401329       7.926565344007938
1.475                    12.331665434852802       12.352897769520332       7.838699504924503
1.4875                   12.056818090072927       12.227399331015036       7.752305126517986
1.5                      11.769764355710088       12.103116855482096       7.667252098481595
1.5125000000000002       11.472138552445744       11.980439310715445       7.583428082481759
1.5250000000000001       11.16573933439272        11.859525205360749       7.500757879236317
1.5375                   10.852504240009974       11.740319220390688       7.419217540137827
1.55                     10.534482060613511       11.622609318443445       7.338839987500163
1.5625                   10.213803498402372       11.506107936121872       7.259710207928237
1.5750000000000002       9.892650605943548        11.390536924698216       7.181949708818471
1.5875000000000001       9.573225527364723        11.275696536727141       7.105691877044319
1.6                      9.257719047881444        11.161504540028398       7.031051549461668
1.6125                   8.948279443738963        11.047999761164945       6.958093330461293
1.625                    8.646982100865394        10.935313456083934       6.886803780902597
1.6375000000000002       8.355800332465131        10.823619520354322       6.817072299508291
1.6500000000000001       8.07657780309496         10.713078660712268       6.748684541212103
1.6625                   7.811002920547855        10.603792035355118       6.681330370592051
1.675                    7.560585533969321        10.495775724289537       6.614626243937908
1.6875                   7.326636250865855        10.388961071238938       6.548149707677768
1.7000000000000002       7.110248662231586        10.283218627775705       6.481481744392713
1.7125000000000001       6.912284728395407        10.178397226266705       6.414251370357895
1.725                    6.733363584874016        10.074366325704256       6.346176369507171
1.7375                   6.573853944622767        9.97104949643415         6.277094435784862
1.75                     6.43387026673229         9.868440396148658        6.206980345358386
1.7625000000000002       6.313272793663077        9.766597833281535        6.13594669889664
1.7750000000000001       6.2116714972344536       9.665622551024251        6.0642281288766915
1.7875                   6.128433887713362        9.565623322829346        5.992151266139539
1.8                      6.062696602239916        9.466682497648879        5.9200946400611905
1.8125                   6.013380546346954        9.368830901909744        5.848444270616365
1.8250000000000002       5.979209342370409        9.272038712972412        5.777550968019769
1.8375000000000001       5.958730746833324        9.176224218257156        5.707695033808106
1.85                     5.950340647527168        9.081277185070828        5.639062750152236
1.8625                   5.95230921285663         8.987089584997884        5.571737140138522
1.875                    5.962808746494682        8.893584555072383        5.505703351025677
1.8875000000000002       5.979942772781541        8.800735317557221        5.440866683853814
1.9000000000000001       6.001775899421627        8.708569008137294        5.377079677438541
1.9125                   6.026364001444691        8.617154782651218        5.314173454479488
1.925                    6.051784287036481        8.526580131705577        5.251988230364302
1.9375                   6.076164820999652        8.43692255069215         5.1903983846134825
1.9500000000000002       6.097713091466032        8.348224943266024        5.12932865626435
1.9625000000000001       6.114743223469855        8.260481763238312        5.0687597755002
1.975                    6.125701448206107        8.173639627136835        5.008723636403326
1.9875                   6.12918944768789         8.087611894520158        4.949289845145992
2                        6.123985214896671        8.002302658694862        4.890546784983975
2.0125                   6.10906107610534         7.917633009014337        4.83258099699038
2.025                    6.083598566167591        7.833561793382121        4.775458729344158
2.0375                   6.046999888792109        7.750094957252499        4.719212784948381
2.0500000000000003       5.99889574086746         7.66728091262178         4.663836653489919
2.0625                   5.9391493498895205       7.585193488937071        4.609286478967791
2.075                    5.867856658865962        7.5039076357463514       4.555489941969822
2.0875                   5.785342641073064        7.42347506509857         4.502359989138857
2.1                      5.692153847487169        7.343907065992243        4.449810500351565
2.1125000000000003       5.58904733696909         7.265169438042154        4.397770866147655
2.125                    5.4769762098833805       7.18719096604252         4.346196799253554
2.1375                   5.357072022188097        7.109882866333879        4.295075542370946
2.15                     5.230624407536055        7.033163416335401        4.244424801746181
2.1625                   5.099058239342462        6.956980483269599        4.194285882136907
2.1750000000000003       4.963908726495309        6.881325221845884        4.144712662868636
2.1875                   4.826794818137024        6.806232916573899        4.095758687738859
2.2                      4.689391318372299        6.7317706595482845       4.047464925412766
2.2125                   4.553400121050746        6.658015459736903        3.9998505245978624
2.225                    4.4205209861516535       6.585029222174708        3.9529081999546594
2.2375000000000003       4.2924222885647          6.5128380256851          3.906604999732626
2.25                     4.170712188162615        6.4414219484228035       3.8608880573717794
2.2625                   4.056910670593067        6.370718560563923        3.815694059519249
2.275                    3.9524229160321633       6.30063925207973         3.7709604652034785
2.2875                   3.8585144447450395       6.23109371995936         3.726636240696355
2.3000000000000003       3.776288466656022        6.162015469983467        3.6826900467475583
2.3125                   3.7066658467985896       6.093380690558367        3.639114337599592
2.325                    3.6503680266998066       6.025214725356097        3.5959247109707357
2.3375                   3.607903209604983        5.957583938809412        3.553154754193844
2.35                     3.579556043411328        5.890575024162387        3.5108475075081427
2.3625000000000003       3.5653809619031693       5.824267607609216        3.4690452967275722
2.375                    3.565199282233101        5.758708121896241        3.4277799557722823
2.3875                   3.578600088047688        5.6938928720970825       3.3870653608103116
2.4000000000000004       3.6049448455047153       5.629765628454577        3.3468936826168982
2.4125                   3.643375667442557        5.5662309803720955       3.3072360212513563
2.4250000000000003       3.6928270787010824       5.503180054482094        3.2680472212151135
2.4375                   3.752041088240039        5.44052138720698         3.2292738440758604
2.45                     3.8195853522258703       5.378207947732887        3.190863690930477
2.4625000000000004       3.893874157871735        5.316251978911703        3.152774957967076
2.475                    3.973191928933087        5.254722699898608        3.1149832311696897
2.4875000000000003       4.055718925875246        5.193726696059296        3.0774849685581667
2.5                      4.139558771497752        5.13337595686404         3.040296817579778
2.5125                   4.222767395935899        5.073752438425869        3.003450953599591
2.5250000000000004       4.30338297135758         5.014879543206124        2.9669873766584423
2.5375                   4.379456362295969        4.956709531239869        2.9309447403767215
2.5500000000000003       4.449081608194261        4.899131585818779        2.895351529492832
2.5625                   4.510425939041118        4.841999555701539        2.8602193301240235
2.575                    4.561758823684785        4.785172511292443        2.825539520670222
2.5875000000000004       4.601479571057921        4.728557021930095        2.791284013552161
2.6                      4.628143015405857        4.672138687714367        2.757409916689838
2.6125000000000003       4.640482875456739        4.615992599455107        2.7238671483918395
2.625                    4.637432413310991        4.560267789098112        2.690607502960519
2.6375                   4.618142075987394        4.505147738267269        2.6575933636723685
2.6500000000000004       4.581993858995902        4.450796131954711        2.624804324902509
2.6625                   4.528612203832265        4.3973021044731135       2.5922404143399853
2.6750000000000003       4.457871256217318        4.344640913476392        2.5599212308981127
2.6875                   4.369898424298588        4.2926633132848915       2.527881187297709
2.7                      4.265074175197511        4.24112039572699         2.4961617697873657
2.7125000000000004       4.144028074507875        4.189721989123924        2.464802341958429
2.725                    4.007631114990362        4.138217662430892        2.4338313180658155
2.7375000000000003       3.8569844303445042       4.086482550051898        2.403259462359085
2.75                     3.6934045129256483       4.034587150816983        2.3730766922795774
2.7625                   3.5184051489834203       3.9828323835824677       2.3432530397492486
2.7750000000000004       3.333676296893259        3.9317380526159273       2.3137436328954846
2.7875                   3.1410602096428177       3.8819828215367775       2.2844967526343205
2.8000000000000003       2.942525157198293        3.8343049256215544       2.255463393421407
2.8125                   2.7401371511759987       3.7893821162787327       2.226606444526244
2.825                    2.5360301214520047       3.747715015976637        2.197907634985905
2.8375000000000004       2.3323750368467238       3.709538083756977        2.1693708233578772
2.85                     2.131348469741485        3.674776867643645        2.141020907346738
2.8625000000000003       1.9351011202613704       3.6430606921601867       2.1128984838115827
2.875                    1.7457268042854692       3.6137879935355754       2.085051245232895
2.8875                   1.56523239074453         3.5862306329457216       2.0575237518726976
2.9000000000000004       1.3955091442840537       3.5596551404937067       2.0303476074440594
2.9125                   1.2383058857047207       3.533436079367696        2.00353401046604
2.9250000000000003       1.0952043482859344       3.507139443898295        1.9770702313382842
2.9375                   0.9675970668255518       3.4805613151222725       1.950920832292338
2.95                     0.8566680898682562       3.4537176325859518       1.9250335114076769
2.9625000000000004       0.7633767903545262       3.4267914779220505       1.8993485619787205
2.975                    0.6884449921994054       3.400053643364698        1.8738101382200794
2.9875000000000003       0.6323476076263191       3.37377663898438         1.8483771381825422
3                        0.5953069451118366       3.3481620757149417       1.8230315126755043
3.0125                   0.5772908026658671       3.3232965728737116       1.7977822354172688
3.0250000000000004       0.5780143983163015       3.2991430790110523       1.7726639890127853
3.0375                   0.5969461659254959       3.27556569259917         1.747730582047062
3.0500000000000003       0.6333173275278144       3.2523775806445854       1.723044235247562
3.0625                   0.6861351170282012       3.2293972083236686       1.6986626853494509
3.075                    0.7541994441753435       3.2064972856869987       1.6746265866513748
3.0875000000000004       0.8361227166350402       3.1836341066567813       1.6509497504227666
3.1                      0.9303524643954953       3.1608512833552163       1.6276142951776917
3.1125000000000003       1.0351963867678124       3.138258874037318        1.6045719794321018
3.125                    1.1488493580699346       3.1159958662861365       1.5817517416151328
3.1375                   1.26942194391418         3.0941875012577733       1.5590723189490279
3.1500000000000004       1.3949699528347783       3.0729096420839785       1.5364577348633512
3.1625                   1.5235245537214845       3.052169612072634        1.5138527514140565
3.1750000000000003       1.6531225030512733       3.0319077214004193       1.491235231326668
3.1875                   1.7818360402372166       3.012017878894016        1.4686227123142876
3.2                      1.9078020291270545       2.9923801428952452       1.4460715077485278
3.2125000000000004       2.029249942355051        2.9728954148275313       1.4236679357210804
3.225                    2.1445282976188422       2.95351227095134         1.4015127723154086
3.2375000000000003       2.2521291706193116       2.934238688185674        1.3797014091451596
3.25                     2.350710421586998        2.9151360262984896       1.3583031870544915
3.2625                   2.4391152793667668       2.8962977518836115       1.3373438520671919
3.2750000000000004       2.5163889689890246       2.8778197873888947       1.3167947999822436
3.2875                   2.581792080362391        2.8597713066039816       1.2965718433529745
3.3000000000000003       2.6348104264532357       2.842174428086437        1.2765447678312896
3.3125                   2.675161199998961        2.8249983577210647       1.2565571144952266
3.325                    2.70279529004664         2.8081692565117806       1.236453842743593
3.3375000000000004       2.7178957062647706       2.791592473924804        1.2161129229312904
3.35                     2.720872154348136        2.775180294285778        1.195475973295559
3.3625000000000003       2.7123518099604094       2.75887690546551         1.1745727302029392
3.375                    2.693166604604213        2.7426735935137603       1.1535351811821084
3.3875                   2.6643371034876515       2.7266097126851343       1.1325979054839042
3.4000000000000004       2.6270536418149604       2.7107596153790685       1.1120838094363585
3.4125                   2.5826550611930443       2.695209830204882        1.0923764747562352
3.4250000000000003       2.5326042098703936       2.680032230259385        1.0738810655528184
3.4375                   2.4784613257777615       2.665261570720412        1.0569794237484158
3.45                     2.421857455450686        2.650885451263992        1.0419870638531064
3.4625000000000004       2.3644661353645247       2.6368475320059503       1.029115937928552
3.475                    2.3079740631952883       2.623063198934211        1.0184485048241465
3.4875000000000003       2.2540528685687815       2.6094445550665077       1.0099284387533007
3.5                      2.2043300118160687       2.595925232341332        1.003367042159676
3.5125                   2.160360439017644        2.5824788946494976       0.9984656076880102
3.5250000000000004       2.1235998260516395       2.5691264429919505       0.9948509474593578
3.5375                   2.0953784547645604       2.55592862646388         0.9921177386712633
3.5500000000000003       2.076877408837907        2.542967432473471        0.9898730019525087
3.5625                   2.0691069973934786       2.5303212672535556       0.9877761786386109
3.575                    2.0728876339137803       2.5180410583224497       0.985569433563736
3.5875000000000004       2.088834032357582        2.5061347320019265       0.9830950713694869
3.6                      2.1173426460811067       2.494564259204354        0.9802981392546429
3.6125000000000003       2.1585827726059317       2.4832562997568766       0.977215090961936
3.625                    2.2124915316120095       2.4721233670934954       0.9739512629103687
3.6375                   2.2787727011916568       2.4610892038441645       0.9706513058299057
3.6500000000000004       2.3568994940435313       2.450110962999308        0.9674676727322852
3.6625                   2.446121150303924        2.4391915726993436       0.9645320924600559
3.6750000000000003       2.545473183753059        2.4283785376977627       0.961934162926177
3.6875                   2.6537910740293773       2.417749414154248        0.9597097706492318
3.7                      2.769727126268295        2.4073881148864893       0.9578402280263153
3.7125000000000004       2.8917702075597944       2.3973589879418324       0.9562612144181007
3.725                    3.018268045413293        2.3876863697071866       0.9548790474929875
3.7375000000000003       3.14745175978797         2.3783458179014674       0.9535907698166889
3.75                     3.2774622925453154       2.369269879296614        0.952304159704486
3.7625                   3.4063783827630347       2.3603669834643637       0.9509540840386111
3.7750000000000004       3.5322457179552043       2.3515481163799445       0.9495125200862696
3.7875                   3.65310686639838         2.3427534771562946       0.9479908907042357
3.8000000000000003       3.7670315661504055       2.3339711131286855       0.9464348308951626
3.8125                   3.8721469165555265       2.325241682680445        0.9449128670190344
3.825                    3.9666669923645217       2.3166474442958327       0.9435015071515002
3.8375000000000004       4.048921384609055        2.3082882083842104       0.9422697490026226
3.85                     4.117382170742369        2.300250975839586        0.9412659452623193
3.8625000000000003       4.170688821547407        2.2925821978491414       0.9405093885991623
3.875                    4.207670480211825        2.285271860709392        0.939988199101845
3.8875                   4.227365916185197        2.2782509482959497       0.9396622429178169
3.9000000000000004       4.229039785713034        2.271410805218913        0.9394732348295963
3.9125                   4.212197188682002        2.2646303550433395       0.9393564345015949
3.9250000000000003       4.176592463630939        2.257822254512153        0.93925754181873
3.9375                   4.122234316807635        2.2509577764376236       0.9391414735238169
3.95                     4.049382361335569        2.2440710444893353       0.9389926013665219