% Model:              Chap1Ex4_MIMO_HeatEquation.mph
% Version:            COMSOL 4.3.2.189
% Date:               Nov 5 2013, 10:35
% Dimension:          1
% Nodes:              30
% Expressions:        201
% Description:        Dependent variable z
% x                       z (1) @ t=0              z (1) @ t=0.01           z (1) @ t=0.02           z (1) @ t=0.03           z (1) @ t=0.04           z (1) @ t=0.05           z (1) @ t=0.06           z (1) @ t=0.07           z (1) @ t=0.08           z (1) @ t=0.09           z (1) @ t=0.1            z (1) @ t=0.11           z (1) @ t=0.12           z (1) @ t=0.13           z (1) @ t=0.14           z (1) @ t=0.15           z (1) @ t=0.16           z (1) @ t=0.17           z (1) @ t=0.18           z (1) @ t=0.19           z (1) @ t=0.2            z (1) @ t=0.21           z (1) @ t=0.22           z (1) @ t=0.23           z (1) @ t=0.24           z (1) @ t=0.25           z (1) @ t=0.26           z (1) @ t=0.27           z (1) @ t=0.28           z (1) @ t=0.29           z (1) @ t=0.3            z (1) @ t=0.31           z (1) @ t=0.32           z (1) @ t=0.33           z (1) @ t=0.34           z (1) @ t=0.35           z (1) @ t=0.36           z (1) @ t=0.37           z (1) @ t=0.38           z (1) @ t=0.39           z (1) @ t=0.4            z (1) @ t=0.41           z (1) @ t=0.42           z (1) @ t=0.43           z (1) @ t=0.44           z (1) @ t=0.45           z (1) @ t=0.46           z (1) @ t=0.47           z (1) @ t=0.48           z (1) @ t=0.49           z (1) @ t=0.5            z (1) @ t=0.51           z (1) @ t=0.52           z (1) @ t=0.53           z (1) @ t=0.54           z (1) @ t=0.55           z (1) @ t=0.56           z (1) @ t=0.57           z (1) @ t=0.58           z (1) @ t=0.59           z (1) @ t=0.6            z (1) @ t=0.61           z (1) @ t=0.62           z (1) @ t=0.63           z (1) @ t=0.64           z (1) @ t=0.65           z (1) @ t=0.66           z (1) @ t=0.67           z (1) @ t=0.68           z (1) @ t=0.69           z (1) @ t=0.7            z (1) @ t=0.71           z (1) @ t=0.72           z (1) @ t=0.73           z (1) @ t=0.74           z (1) @ t=0.75           z (1) @ t=0.76           z (1) @ t=0.77           z (1) @ t=0.78           z (1) @ t=0.79           z (1) @ t=0.8            z (1) @ t=0.81           z (1) @ t=0.82           z (1) @ t=0.83           z (1) @ t=0.84           z (1) @ t=0.85           z (1) @ t=0.86           z (1) @ t=0.87           z (1) @ t=0.88           z (1) @ t=0.89           z (1) @ t=0.9            z (1) @ t=0.91           z (1) @ t=0.92           z (1) @ t=0.93           z (1) @ t=0.94           z (1) @ t=0.95           z (1) @ t=0.96           z (1) @ t=0.97           z (1) @ t=0.98           z (1) @ t=0.99           z (1) @ t=1              z (1) @ t=1.01           z (1) @ t=1.02           z (1) @ t=1.03           z (1) @ t=1.04           z (1) @ t=1.05           z (1) @ t=1.06           z (1) @ t=1.07           z (1) @ t=1.08           z (1) @ t=1.09           z (1) @ t=1.1            z (1) @ t=1.11           z (1) @ t=1.12           z (1) @ t=1.13           z (1) @ t=1.14           z (1) @ t=1.15           z (1) @ t=1.16           z (1) @ t=1.17           z (1) @ t=1.18           z (1) @ t=1.19           z (1) @ t=1.2            z (1) @ t=1.21           z (1) @ t=1.22           z (1) @ t=1.23           z (1) @ t=1.24           z (1) @ t=1.25           z (1) @ t=1.26           z (1) @ t=1.27           z (1) @ t=1.28           z (1) @ t=1.29           z (1) @ t=1.3            z (1) @ t=1.31           z (1) @ t=1.32           z (1) @ t=1.33           z (1) @ t=1.34           z (1) @ t=1.35           z (1) @ t=1.36           z (1) @ t=1.37           z (1) @ t=1.38           z (1) @ t=1.39           z (1) @ t=1.4            z (1) @ t=1.41           z (1) @ t=1.42           z (1) @ t=1.43           z (1) @ t=1.44           z (1) @ t=1.45           z (1) @ t=1.46           z (1) @ t=1.47           z (1) @ t=1.48           z (1) @ t=1.49           z (1) @ t=1.5            z (1) @ t=1.51           z (1) @ t=1.52           z (1) @ t=1.53           z (1) @ t=1.54           z (1) @ t=1.55           z (1) @ t=1.56           z (1) @ t=1.57           z (1) @ t=1.58           z (1) @ t=1.59           z (1) @ t=1.6            z (1) @ t=1.61           z (1) @ t=1.62           z (1) @ t=1.63           z (1) @ t=1.64           z (1) @ t=1.65           z (1) @ t=1.66           z (1) @ t=1.67           z (1) @ t=1.68           z (1) @ t=1.69           z (1) @ t=1.7            z (1) @ t=1.71           z (1) @ t=1.72           z (1) @ t=1.73           z (1) @ t=1.74           z (1) @ t=1.75           z (1) @ t=1.76           z (1) @ t=1.77           z (1) @ t=1.78           z (1) @ t=1.79           z (1) @ t=1.8            z (1) @ t=1.81           z (1) @ t=1.82           z (1) @ t=1.83           z (1) @ t=1.84           z (1) @ t=1.85           z (1) @ t=1.86           z (1) @ t=1.87           z (1) @ t=1.88           z (1) @ t=1.89           z (1) @ t=1.9            z (1) @ t=1.91           z (1) @ t=1.92           z (1) @ t=1.93           z (1) @ t=1.94           z (1) @ t=1.95           z (1) @ t=1.96           z (1) @ t=1.97           z (1) @ t=1.98           z (1) @ t=1.99           z (1) @ t=2
0.02                      0.7748654929512961       0.6955051632292073       0.6308095667964506       0.5758440259973343       0.5286037976644791       0.48769404884124595      0.4521224104120842       0.42123241135892975      0.39440703235153995      0.3712110374002334       0.351231493556945        0.3341458660528478       0.31966003005418087      0.30751620412027747      0.2974891036923508       0.2893727844763313       0.2829860000471779       0.27816666087508846      0.2747681516343739       0.2726586316467521       0.2717208896571347       0.27184805606517415      0.2729445552736364       0.2749217624396467       0.27769929138764193      0.28120657545816863      0.28537982719683486      0.29015654296289783      0.2954842803953042       0.301314628720846        0.30760364455304934      0.31430887557424314      0.32139420575659455      0.3288266485992283       0.33657451435110664      0.3446094506463009       0.3529059555437089       0.36144101569498516      0.3701926024527761       0.3791409971841491       0.38826868759715694      0.3975588502493761       0.40699487900078557      0.4165627612286768       0.4262511122463517       0.43604622749726246      0.4459341616769512       0.4559074709948524       0.46595687008611825      0.4760722316683469       0.4862456008871565       0.4964692389805081       0.5067356661050615       0.5170370682703818       0.5273664718685748       0.5377170298637914       0.5480834468138529       0.5584601831881982       0.5688419526023655       0.579223081541081        0.5895974958160131       0.5999609503498542       0.6103087873539816       0.6206361904926688       0.6309390444523697       0.6412132996350596       0.6514538563798424       0.6616567353880789       0.6718180135508512       0.6819336644542153       0.6919997417054528       0.7020125218522251       0.7119682080883706       0.7218626033201655       0.7316921770410687       0.74145324674184         0.7511421854139939       0.760755421549799        0.7702894391422783       0.7797410079525833       0.789106822742474        0.7983835088762176       0.807567850616155        0.8166566958941982       0.82564695631183         0.834534128260281        0.8433152879837503       0.8519875265897728       0.860547676662465        0.8689926035880428       0.8773192055548216       0.8855245658413597       0.8936056002600439       0.9015593228675169       0.9093827898497568       0.9170730925436559       0.9246273202740194       0.9320421711478597       0.9393150255151258       0.946443036343646        0.9534233841334651       0.9602532769168427       0.9669300978730774       0.9734516586716908       0.9798150307367474       0.9860176485154898       0.9920569850428876       0.9979305519416359       1.003635963126855        1.0091709118061214       1.014532983162123        1.019719873236145        1.0247293194748657       1.029559100730356        1.0342073542930463       1.0386721657830926       1.0429513459576296       1.047042944291204        1.050945061364623        1.0546558488649542       1.0581736281375576       1.061496689508525        1.0646233452889309       1.0675520013486757       1.0702811227890932       1.0728092345071878       1.075135112913064        1.0772573943724988       1.0791748187967638       1.0808862201686784       1.082390505442003        1.0836866536163425       1.0847734497990142       1.0856501052203684       1.0863157655468383       1.0867696443234969       1.0870110234128258       1.087039286682481        1.0868540829953877       1.0864548404864542       1.0858411848265055       1.085012823543336        1.0839695472791677       1.0827110966309261       1.0812370611378253       1.0795475762402726       1.0776426429714094       1.075522328997187        1.073186768248775        1.0706364154926522       1.0678718714203268       1.0648934067807538       1.0617015845216828       1.0582970599746795       1.0546805824613195       1.050852440253233        1.0468132543366386       1.0425640757163017       1.0381057768746946       1.0334392880857117       1.0285655959314879       1.0234866711406998       1.018203726990992        1.0127180170463808       1.0070310893299625       1.0011445977325542       0.9950603044671467       0.9887782882658196       0.9823008501357606       0.9756297221835084       0.9687665727144465       0.961713102259617        0.9544711731523559       0.9470446402632139       0.939434693573655        0.9316436753685622       0.9236740370679158       0.9155283425238079       0.9072089314783871       0.8987171243016099       0.8900562200998277       0.8812287959478995       0.8722374778325743       0.8630849382051573       0.8537741830954814       0.8443085394862497       0.8346906819407773       0.8249236793914871       0.8150106745047304       0.804954884039202        0.7947588549149591       0.7844252614519103       0.7739576353729419       0.7633590720272634       0.7526326728122656       0.7417815406253382       0.7308103079849027       0.7197226020945964       0.7085215785238801       0.6972109589614295       0.6857945514837291
0.06                      0.7907420976142034       0.7115447100709951       0.6461043334527107       0.590342893345148        0.5423458761008592       0.5007506351035966       0.4645828048473331       0.4331696086885378       0.4059053346638506       0.38234081513238904      0.3620643706660236       0.3447444989606871       0.33008281766256864      0.31781695085597667      0.3077165319841097       0.2995714117008309       0.29319640659368684      0.28842586100765216      0.2851098666125772       0.28311358258814123      0.2823171037565763       0.28261108537521296      0.2838977243599789       0.2860863236083155       0.2890946076027726       0.2928503355413071       0.2972881983289602       0.30234420941601076      0.30796466358439023      0.31409998179621196      0.3207051556743303       0.3277367074313918       0.33515763624570577      0.34293414322380383      0.3510337592921997       0.3594274295768417       0.36808901339317124      0.3769949164449129       0.3861225526118619       0.3954516981961873       0.40496438740258345      0.4146433591492984       0.42447157514926287      0.43443465030777695      0.4445208877396202       0.4547162174549866       0.46500632291683996      0.47538353826545293      0.4858383136292873       0.4963602378978732       0.5069411221022444       0.5175729984070333       0.5282481636026041       0.5389585724156506       0.5496970392401721       0.5604565077799415       0.5712315091326599       0.5820163244411296       0.5928054936654991       0.6035931605462924       0.6143730587316338       0.6251407930891077       0.6358915461845803       0.646620338919545        0.6573229085045476       0.6679950595500476       0.6786315229100639       0.6892281751134537       0.6997809501633672       0.7102856769134105       0.7207382662315838       0.7311348565375416       0.7414715116578003       0.7517438866530008       0.761948317776715        0.7720809861736646       0.7821381298729435       0.7921160437880188       0.8020110797167301       0.8118198856707046       0.8215390309100397       0.8311650117656562       0.8406944889193104       0.8501241884274278       0.8594509017211013       0.868669977829549        0.8777783769656728       0.8867730749571527       0.8956507845178259       0.9044082522655885       0.9130422587223954       0.9215497824221749       0.929927619990917        0.9381726724800896       0.9462818848963837       0.9542522386816653       0.9620807143449295       0.9697639001091409       0.9772990712948049       0.9846832756760378       0.9919135898013959       0.9989871189938775       1.0059011501619528       1.012653414060718        1.0192408754153914       1.0256608750262577       1.0319107939127208       1.0379880533133008       1.0438901823019977       1.0496147933760536       1.0551593836367537       1.0605215671130228       1.0656990010435834       1.0706893858769573       1.075490793320321        1.080101241980896        1.0845184664179643       1.0887404485685919       1.0927652236175838       1.0965908799974855       1.100215684000235        1.103637868842252        1.1068556903779228       1.109867502331843        1.1126717202168286       1.1152668219269932       1.1176515427072335       1.1198244770127044       1.1217843262253675       1.1235298890396217       1.1250600400252253       1.126373728688808        1.1274697069924458       1.1283471646555197       1.1290052253620377       1.129443083500607        1.1296600046234244       1.1296553596925365       1.1294287907217868       1.128979717202998        1.1283077611545207       1.1274126295826095       1.1262941157723496       1.1249519639164844       1.1233857664284477       1.1215956725537306       1.1195816967119796       1.1173439229071325       1.1148825043661565       1.112197920329558        1.1092907996315584       1.1061614407092062       1.1028104391564346       1.099238486183248        1.0954463702453845       1.091434414982917        1.0872032830338179       1.0827540745725377       1.0780877110706144       1.0732051746043174       1.0681075063558394       1.0627967420522426       1.0572741560911123       1.051541065812361        1.0455990877505457       1.0394499474944232       1.0330954821580565       1.0265358325718184       1.0197733839111607       1.012809949590655        1.0056472808686983       0.998287163726562        0.9907315493658637       0.982984398104576        0.9750469884278904       0.9669217616348669       0.9586112711527566       0.9501181858462378       0.9414449497339452       0.932592977918086        0.9235656877839569       0.9143657683769653       0.9049959598371491       0.8954590509006142       0.8857581695797692       0.8758967703592822       0.8658776486428391       0.8557040005985084       0.8453790984972162       0.8349062910549883       0.8242882503070903       0.8135277786576016       0.8026285478644768       0.7915937892872142       0.780426741744148        0.7691306468875785       0.7577102933283171       0.7461694550753049       0.7345114307864316       0.7227400923806836       0.7108594002446088
0.09999999999999999       0.7924698759129698       0.7162095244409064       0.6517958963741393       0.5966059638744612       0.548962655080818        0.5076173023293015       0.4716663033435083       0.4404340369741703       0.41335756720733463      0.38997929012288546      0.36990449845968         0.3527973386422389       0.3383622763358882       0.3263378015290637       0.3164924266498739       0.30861571166522483      0.30252176766674604      0.29804421490595356      0.2950323661240014       0.2933506034603406       0.29287827657509297      0.2935053240061932       0.295133273603723        0.2976707946531456       0.30103501765786833      0.30515314895003137      0.30995936330056334      0.31538918453438863      0.32138845932571425      0.3279071897170388       0.33489997804957417      0.342322977035325        0.35013884665610273      0.3583134695502188       0.3668140729045667       0.37561131944793635      0.3846788006736582       0.3939926714110539       0.4035301025413892       0.41327064063487057      0.42319610582272         0.4332890273414723       0.4435321595478692       0.45391092656844567      0.4644134571645928       0.47502549236528013      0.4857325245584854       0.4965267375945643       0.5073984193429009       0.5183369911041484       0.5293341096752063       0.5403816545072722       0.5514717707982493       0.5625962590725075       0.5737477847796173       0.5849191431212717       0.5961047268797752       0.6072986767702749       0.6184953936186521       0.6296888791829205       0.6408727221466891       0.6520423941700064       0.6631929417777357       0.6743192499538688       0.6854169226889348       0.6964816321684314       0.7075079710478811       0.7184916838820701       0.7294285730418305       0.7403143361803664       0.7511447537897183       0.7619158342748233       0.7726235118914719       0.7832633110390279       0.7938314401087033       0.8043239521974715       0.8147369578577789       0.8250666250975438       0.835309179380159        0.8454611522570261       0.8555189918267293       0.8654790687837146       0.8753379229217593       0.8850921603104405       0.894738453295135        0.9042720332402954       0.9136897430622581       0.9229884422104256       0.9321647280347387       0.9412152327011775       0.9501366231917636       0.9589257837327402       0.9675793934621164       0.9760942447280531       0.9844671758679824       0.9926950628490564       1.0007747829535554       1.0087028344585094       1.0164763855899743       1.0240923856641588       1.0315478141822256       1.0388396808302878       1.0459651829138457       1.052921975553835        1.059706925204466        1.066317286313347        1.0727503553039823       1.0790034705757723       1.0850740854431375       1.09095974180155         1.0966578556572721       1.1021659677394835       1.1074816639793665       1.1126025755101043       1.1175267163081188       1.1222520464259151       1.1267762342910181       1.1310972036709555       1.1352129338667127       1.1391214597127377       1.142821003702345        1.1463097523339851       1.1495859151841081       1.152647804675711        1.155493797820699        1.158122336848724        1.1605321227760874       1.1627217202474185       1.1646898034618653       1.1664351466699137       1.167956602934863        1.1692531032092535       1.1703233820021839       1.171166617068644        1.1717819221758894       1.1721684848045322       1.1723255666320438       1.1722525374725588       1.1719490393251968       1.1714144976643537       1.1706485423534547       1.1696508912867665       1.168421351696699        1.1669596857677444       1.1652655087029467       1.1633389923377109       1.1611801784103242       1.1587891815486306       1.156166188936849        1.1533117111587352       1.150226409896912        1.1469106291152145       1.143365008049967        1.1395902843720624       1.1355872957984414       1.1313564264967237       1.1268983988067869       1.122214370302583        1.117305326834206        1.1121723182400316       1.1068164568768155       1.1012398308007365       1.0954437896530482       1.0894297297940339       1.083199344453142        1.0767544381046448       1.0700969288732123       1.063227080528685        1.0561473563160348       1.0488596648597166       1.041365858533834        1.033667828196437        1.0257676303351027       1.0176692839129624       1.0093741990326253       1.000884923506213        0.9922041189423825       0.9833345639474451       0.9742788198472426       0.9650384408741647       0.9556169513839907       0.9460171637690202       0.9362419439750559       0.9262942089980601       0.9161772131103291       0.9058945352080651       0.8954491081721756       0.8848442625867411       0.8740834069618486       0.8631700280279395       0.8521069489747863       0.8408971242340327       0.8295443672281866       0.8180520604143113       0.8064235963149415       0.7946623729205575       0.7827733088584269       0.7707603297096436       0.7586268971092859       0.7463770376758032       0.7340148672306204
0.13999999999999999       0.7810031892145967       0.7097269835001841       0.6479969284574233       0.5947004965731355       0.5485008466854606       0.5083316948836487       0.47340265380012314      0.4430556242442918       0.41679284345525425      0.39415783456743203      0.37478474621299945      0.3583395313500487       0.34453590890675534      0.33311842771927647      0.3238586309775898       0.3165496160385928       0.311007995432113        0.30706948793799477      0.3045851425541386       0.30342079227003904      0.30345699509225343      0.3045847373629049       0.30670644205513287      0.30973158955494856      0.31357801789910905      0.3181735078105858       0.3234527295218601       0.3293517158943104       0.3358166856899077       0.3427979760165728       0.35025048010440507      0.3581306408829316       0.36640132836457345      0.3750286039083959       0.38397986948361634      0.3932259281552992       0.4027404770186354       0.412499752334999        0.4224809984625285       0.4326638094207403       0.44303003229190135      0.45356221604343727      0.4642431337794612       0.4750582016706314       0.48599551294485555      0.49704079706266635      0.5081795364138731       0.5194038369822654       0.5307039272680478       0.5420691778299501       0.5534911715967626       0.5649617121349988       0.57647286521956         0.5880163546464005       0.5995847602886635       0.6111707898816822       0.6227687333440225       0.6343726300918675       0.6459767765199943       0.6575750733568166       0.6691610117040724       0.6807299469628035       0.6922768133409583       0.703796387024459        0.7152841530877916       0.726735664761396        0.7381454079425225       0.7495090075034063       0.7608221455250589       0.7720804021185116       0.7832794398954183       0.794415145442133        0.805483333340604        0.8164794146155325       0.8273994752666431       0.838239448734233        0.8489953256699782       0.8596631539369298       0.8702390386095156       0.8807194005858265       0.8911005714111848       0.9013787995696083       0.9115505068815728       0.9216121815532918       0.9315603781767186       0.9413902396402084       0.9510984905908269       0.9606818732812301       0.9701368743290427       0.9794600158866549       0.9886478556412238       0.9976971951934547       1.0066045976479108       1.0153667511896767       1.0239803923012394       1.0324422962137811       1.04074924285355         1.0488976602004267       1.0568846079337688       1.0647069439143484       1.0723615577703782       1.0798453708975149       1.0871554980170257       1.094289524449184        1.1012442269815506       1.1080167813497817       1.114604407156762        1.1210043678726074       1.1272140504386865       1.133230936527355        1.1390523684742226       1.1446758227902565       1.15009882337455         1.155318941514323        1.1603341417411654       1.1651423344370853       1.169741132350033        1.1741284108668668       1.1783021033453993       1.1822602011143968       1.1860008945962084       1.189522334423094        1.192822694532719        1.1959002573686244       1.1987533730173938       1.2013804598803144       1.2037801915732433       1.2059511155794604       1.207891890685457        1.2096012778730423       1.2110781198843434       1.212321340351932        1.2133296738372552       1.2141022954576979       1.2146383217018346       1.2149369459951727       1.2149974392151426       1.2148191822777616       1.2144018234482228       1.2137448099081645       1.2128477913011866       1.2117105082416875       1.2103327936195436       1.2087144426290182       1.2068551141936752       1.2047550117135548       1.202414218732533        1.1998328953565864       1.1970112779713944       1.1939499155653386       1.1906495074556018       1.1871104616984867       1.183333472552005        1.179319335088154        1.1750689467423743       1.1705827783856364       1.1658616307916878       1.1609067273853884       1.1557191343290625       1.1502999857455296       1.1446504823234305       1.1387727516806463       1.132668233364753        1.1263384185741159       1.1197850858324567       1.1130101260890997       1.1060155449756626       1.09880179084182         1.0913713991809546       1.0837263881517312       1.07586872985264         1.0678004398910141       1.059523696884165        1.051042531768275        1.042358529912622        1.033474353506888        1.0243927788677942       1.0151166994109775       1.0056488072357643       0.9959908408965329       0.9861464205791884       0.9761184938286495       0.9659100644867854       0.9555241902318323       0.9449642560627561       0.9342339621389733       0.9233363960517164       0.9122750302599077       0.90105341640423         0.8896751855203533       0.8781433384153068       0.8664610058738628       0.8546321447418317       0.8426603039086544       0.8305490461213283       0.8183019435181563       0.8059240188990606       0.7934193543947264       0.7807915947009295       0.7680449257947467       0.7551836222373747