% Model:              Chap1Ex4_MIMO_HeatEquation.mph
% Version:            COMSOL 4.3.2.189
% Date:               Nov 5 2013, 10:36
% Dimension:          1
% Nodes:              55
% Expressions:        1001
% Description:        Dependent variable z
% x                       z (1) @ t=0              z (1) @ t=0.01           z (1) @ t=0.02           z (1) @ t=0.03           z (1) @ t=0.04           z (1) @ t=0.05           z (1) @ t=0.06           z (1) @ t=0.07           z (1) @ t=0.08           z (1) @ t=0.09           z (1) @ t=0.1            z (1) @ t=0.11           z (1) @ t=0.12           z (1) @ t=0.13           z (1) @ t=0.14           z (1) @ t=0.15           z (1) @ t=0.16           z (1) @ t=0.17           z (1) @ t=0.18           z (1) @ t=0.19           z (1) @ t=0.2            z (1) @ t=0.21           z (1) @ t=0.22           z (1) @ t=0.23           z (1) @ t=0.24           z (1) @ t=0.25           z (1) @ t=0.26           z (1) @ t=0.27           z (1) @ t=0.28           z (1) @ t=0.29           z (1) @ t=0.3            z (1) @ t=0.31           z (1) @ t=0.32           z (1) @ t=0.33           z (1) @ t=0.34           z (1) @ t=0.35           z (1) @ t=0.36           z (1) @ t=0.37           z (1) @ t=0.38           z (1) @ t=0.39           z (1) @ t=0.4            z (1) @ t=0.41           z (1) @ t=0.42           z (1) @ t=0.43           z (1) @ t=0.44           z (1) @ t=0.45           z (1) @ t=0.46           z (1) @ t=0.47           z (1) @ t=0.48           z (1) @ t=0.49           z (1) @ t=0.5            z (1) @ t=0.51           z (1) @ t=0.52           z (1) @ t=0.53           z (1) @ t=0.54           z (1) @ t=0.55           z (1) @ t=0.56           z (1) @ t=0.57           z (1) @ t=0.58           z (1) @ t=0.59           z (1) @ t=0.6            z (1) @ t=0.61           z (1) @ t=0.62           z (1) @ t=0.63           z (1) @ t=0.64           z (1) @ t=0.65           z (1) @ t=0.66           z (1) @ t=0.67           z (1) @ t=0.68           z (1) @ t=0.69           z (1) @ t=0.7            z (1) @ t=0.71           z (1) @ t=0.72           z (1) @ t=0.73           z (1) @ t=0.74           z (1) @ t=0.75           z (1) @ t=0.76           z (1) @ t=0.77           z (1) @ t=0.78           z (1) @ t=0.79           z (1) @ t=0.8            z (1) @ t=0.81           z (1) @ t=0.82           z (1) @ t=0.83           z (1) @ t=0.84           z (1) @ t=0.85           z (1) @ t=0.86           z (1) @ t=0.87           z (1) @ t=0.88           z (1) @ t=0.89           z (1) @ t=0.9            z (1) @ t=0.91           z (1) @ t=0.92           z (1) @ t=0.93           z (1) @ t=0.94           z (1) @ t=0.95           z (1) @ t=0.96           z (1) @ t=0.97           z (1) @ t=0.98           z (1) @ t=0.99           z (1) @ t=1              z (1) @ t=1.01           z (1) @ t=1.02           z (1) @ t=1.03           z (1) @ t=1.04           z (1) @ t=1.05           z (1) @ t=1.06           z (1) @ t=1.07           z (1) @ t=1.08           z (1) @ t=1.09           z (1) @ t=1.1            z (1) @ t=1.11           z (1) @ t=1.12           z (1) @ t=1.13           z (1) @ t=1.14           z (1) @ t=1.15           z (1) @ t=1.16           z (1) @ t=1.17           z (1) @ t=1.18           z (1) @ t=1.19           z (1) @ t=1.2            z (1) @ t=1.21           z (1) @ t=1.22           z (1) @ t=1.23           z (1) @ t=1.24           z (1) @ t=1.25           z (1) @ t=1.26           z (1) @ t=1.27           z (1) @ t=1.28           z (1) @ t=1.29           z (1) @ t=1.3            z (1) @ t=1.31           z (1) @ t=1.32           z (1) @ t=1.33           z (1) @ t=1.34           z (1) @ t=1.35           z (1) @ t=1.36           z (1) @ t=1.37           z (1) @ t=1.38           z (1) @ t=1.39           z (1) @ t=1.4            z (1) @ t=1.41           z (1) @ t=1.42           z (1) @ t=1.43           z (1) @ t=1.44           z (1) @ t=1.45           z (1) @ t=1.46           z (1) @ t=1.47           z (1) @ t=1.48           z (1) @ t=1.49           z (1) @ t=1.5            z (1) @ t=1.51           z (1) @ t=1.52           z (1) @ t=1.53           z (1) @ t=1.54           z (1) @ t=1.55           z (1) @ t=1.56           z (1) @ t=1.57           z (1) @ t=1.58           z (1) @ t=1.59           z (1) @ t=1.6            z (1) @ t=1.61           z (1) @ t=1.62           z (1) @ t=1.63           z (1) @ t=1.64           z (1) @ t=1.65           z (1) @ t=1.66           z (1) @ t=1.67           z (1) @ t=1.68           z (1) @ t=1.69           z (1) @ t=1.7            z (1) @ t=1.71           z (1) @ t=1.72           z (1) @ t=1.73           z (1) @ t=1.74           z (1) @ t=1.75           z (1) @ t=1.76           z (1) @ t=1.77           z (1) @ t=1.78           z (1) @ t=1.79           z (1) @ t=1.8            z (1) @ t=1.81           z (1) @ t=1.82           z (1) @ t=1.83           z (1) @ t=1.84           z (1) @ t=1.85           z (1) @ t=1.86           z (1) @ t=1.87           z (1) @ t=1.88           z (1) @ t=1.89           z (1) @ t=1.9            z (1) @ t=1.91           z (1) @ t=1.92           z (1) @ t=1.93           z (1) @ t=1.94           z (1) @ t=1.95           z (1) @ t=1.96           z (1) @ t=1.97           z (1) @ t=1.98           z (1) @ t=1.99           z (1) @ t=2              z (1) @ t=2.01           z (1) @ t=2.02           z (1) @ t=2.03           z (1) @ t=2.04           z (1) @ t=2.05           z (1) @ t=2.06           z (1) @ t=2.07           z (1) @ t=2.08           z (1) @ t=2.09           z (1) @ t=2.1            z (1) @ t=2.11           z (1) @ t=2.12           z (1) @ t=2.13           z (1) @ t=2.14           z (1) @ t=2.15           z (1) @ t=2.16           z (1) @ t=2.17           z (1) @ t=2.18           z (1) @ t=2.19           z (1) @ t=2.2            z (1) @ t=2.21           z (1) @ t=2.22           z (1) @ t=2.23           z (1) @ t=2.24           z (1) @ t=2.25           z (1) @ t=2.26           z (1) @ t=2.27           z (1) @ t=2.28           z (1) @ t=2.29           z (1) @ t=2.3            z (1) @ t=2.31           z (1) @ t=2.32           z (1) @ t=2.33           z (1) @ t=2.34           z (1) @ t=2.35           z (1) @ t=2.36           z (1) @ t=2.37           z (1) @ t=2.38           z (1) @ t=2.39           z (1) @ t=2.4            z (1) @ t=2.41           z (1) @ t=2.42           z (1) @ t=2.43           z (1) @ t=2.44           z (1) @ t=2.45           z (1) @ t=2.46           z (1) @ t=2.47           z (1) @ t=2.48           z (1) @ t=2.49           z (1) @ t=2.5            z (1) @ t=2.51           z (1) @ t=2.52           z (1) @ t=2.53           z (1) @ t=2.54           z (1) @ t=2.55           z (1) @ t=2.56           z (1) @ t=2.57           z (1) @ t=2.58           z (1) @ t=2.59           z (1) @ t=2.6            z (1) @ t=2.61           z (1) @ t=2.62           z (1) @ t=2.63           z (1) @ t=2.64           z (1) @ t=2.65           z (1) @ t=2.66           z (1) @ t=2.67           z (1) @ t=2.68           z (1) @ t=2.69           z (1) @ t=2.7            z (1) @ t=2.71           z (1) @ t=2.72           z (1) @ t=2.73           z (1) @ t=2.74           z (1) @ t=2.75           z (1) @ t=2.76           z (1) @ t=2.77           z (1) @ t=2.78           z (1) @ t=2.79           z (1) @ t=2.8            z (1) @ t=2.81           z (1) @ t=2.82           z (1) @ t=2.83           z (1) @ t=2.84           z (1) @ t=2.85           z (1) @ t=2.86           z (1) @ t=2.87           z (1) @ t=2.88           z (1) @ t=2.89           z (1) @ t=2.9            z (1) @ t=2.91           z (1) @ t=2.92           z (1) @ t=2.93           z (1) @ t=2.94           z (1) @ t=2.95           z (1) @ t=2.96           z (1) @ t=2.97           z (1) @ t=2.98           z (1) @ t=2.99           z (1) @ t=3              z (1) @ t=3.01           z (1) @ t=3.02           z (1) @ t=3.03           z (1) @ t=3.04           z (1) @ t=3.05           z (1) @ t=3.06           z (1) @ t=3.07           z (1) @ t=3.08           z (1) @ t=3.09           z (1) @ t=3.1            z (1) @ t=3.11           z (1) @ t=3.12           z (1) @ t=3.13           z (1) @ t=3.14           z (1) @ t=3.15           z (1) @ t=3.16           z (1) @ t=3.17           z (1) @ t=3.18           z (1) @ t=3.19           z (1) @ t=3.2            z (1) @ t=3.21           z (1) @ t=3.22           z (1) @ t=3.23           z (1) @ t=3.24           z (1) @ t=3.25           z (1) @ t=3.26           z (1) @ t=3.27           z (1) @ t=3.28           z (1) @ t=3.29           z (1) @ t=3.3            z (1) @ t=3.31           z (1) @ t=3.32           z (1) @ t=3.33           z (1) @ t=3.34           z (1) @ t=3.35           z (1) @ t=3.36           z (1) @ t=3.37           z (1) @ t=3.38           z (1) @ t=3.39           z (1) @ t=3.4            z (1) @ t=3.41           z (1) @ t=3.42           z (1) @ t=3.43           z (1) @ t=3.44           z (1) @ t=3.45           z (1) @ t=3.46           z (1) @ t=3.47           z (1) @ t=3.48           z (1) @ t=3.49           z (1) @ t=3.5            z (1) @ t=3.51           z (1) @ t=3.52           z (1) @ t=3.53           z (1) @ t=3.54           z (1) @ t=3.55           z (1) @ t=3.56           z (1) @ t=3.57           z (1) @ t=3.58           z (1) @ t=3.59           z (1) @ t=3.6            z (1) @ t=3.61           z (1) @ t=3.62           z (1) @ t=3.63           z (1) @ t=3.64           z (1) @ t=3.65           z (1) @ t=3.66           z (1) @ t=3.67           z (1) @ t=3.68           z (1) @ t=3.69           z (1) @ t=3.7            z (1) @ t=3.71           z (1) @ t=3.72           z (1) @ t=3.73           z (1) @ t=3.74           z (1) @ t=3.75           z (1) @ t=3.76           z (1) @ t=3.77           z (1) @ t=3.78           z (1) @ t=3.79           z (1) @ t=3.8            z (1) @ t=3.81           z (1) @ t=3.82           z (1) @ t=3.83           z (1) @ t=3.84           z (1) @ t=3.85           z (1) @ t=3.86           z (1) @ t=3.87           z (1) @ t=3.88           z (1) @ t=3.89           z (1) @ t=3.9            z (1) @ t=3.91           z (1) @ t=3.92           z (1) @ t=3.93           z (1) @ t=3.94           z (1) @ t=3.95           z (1) @ t=3.96           z (1) @ t=3.97           z (1) @ t=3.98           z (1) @ t=3.99           z (1) @ t=4              z (1) @ t=4.01           z (1) @ t=4.02           z (1) @ t=4.03           z (1) @ t=4.04           z (1) @ t=4.05           z (1) @ t=4.06           z (1) @ t=4.07           z (1) @ t=4.08           z (1) @ t=4.09           z (1) @ t=4.1            z (1) @ t=4.11           z (1) @ t=4.12           z (1) @ t=4.13           z (1) @ t=4.14           z (1) @ t=4.15           z (1) @ t=4.16           z (1) @ t=4.17           z (1) @ t=4.18           z (1) @ t=4.19           z (1) @ t=4.2            z (1) @ t=4.21           z (1) @ t=4.22           z (1) @ t=4.23           z (1) @ t=4.24           z (1) @ t=4.25           z (1) @ t=4.26           z (1) @ t=4.27           z (1) @ t=4.28           z (1) @ t=4.29           z (1) @ t=4.3            z (1) @ t=4.31           z (1) @ t=4.32           z (1) @ t=4.33           z (1) @ t=4.34           z (1) @ t=4.35           z (1) @ t=4.36           z (1) @ t=4.37           z (1) @ t=4.38           z (1) @ t=4.39           z (1) @ t=4.4            z (1) @ t=4.41           z (1) @ t=4.42           z (1) @ t=4.43           z (1) @ t=4.44           z (1) @ t=4.45           z (1) @ t=4.46           z (1) @ t=4.47           z (1) @ t=4.48           z (1) @ t=4.49           z (1) @ t=4.5            z (1) @ t=4.51           z (1) @ t=4.52           z (1) @ t=4.53           z (1) @ t=4.54           z (1) @ t=4.55           z (1) @ t=4.56           z (1) @ t=4.57           z (1) @ t=4.58           z (1) @ t=4.59           z (1) @ t=4.6            z (1) @ t=4.61           z (1) @ t=4.62           z (1) @ t=4.63           z (1) @ t=4.64           z (1) @ t=4.65           z (1) @ t=4.66           z (1) @ t=4.67           z (1) @ t=4.68           z (1) @ t=4.69           z (1) @ t=4.7            z (1) @ t=4.71           z (1) @ t=4.72           z (1) @ t=4.73           z (1) @ t=4.74           z (1) @ t=4.75           z (1) @ t=4.76           z (1) @ t=4.77           z (1) @ t=4.78           z (1) @ t=4.79           z (1) @ t=4.8            z (1) @ t=4.81           z (1) @ t=4.82           z (1) @ t=4.83           z (1) @ t=4.84           z (1) @ t=4.85           z (1) @ t=4.86           z (1) @ t=4.87           z (1) @ t=4.88           z (1) @ t=4.89           z (1) @ t=4.9            z (1) @ t=4.91           z (1) @ t=4.92           z (1) @ t=4.93           z (1) @ t=4.94           z (1) @ t=4.95           z (1) @ t=4.96           z (1) @ t=4.97           z (1) @ t=4.98           z (1) @ t=4.99           z (1) @ t=5              z (1) @ t=5.01           z (1) @ t=5.02           z (1) @ t=5.03           z (1) @ t=5.04           z (1) @ t=5.05           z (1) @ t=5.06           z (1) @ t=5.07           z (1) @ t=5.08           z (1) @ t=5.09           z (1) @ t=5.1            z (1) @ t=5.11           z (1) @ t=5.12           z (1) @ t=5.13           z (1) @ t=5.14           z (1) @ t=5.15           z (1) @ t=5.16           z (1) @ t=5.17           z (1) @ t=5.18           z (1) @ t=5.19           z (1) @ t=5.2            z (1) @ t=5.21           z (1) @ t=5.22           z (1) @ t=5.23           z (1) @ t=5.24           z (1) @ t=5.25           z (1) @ t=5.26           z (1) @ t=5.27           z (1) @ t=5.28           z (1) @ t=5.29           z (1) @ t=5.3            z (1) @ t=5.31           z (1) @ t=5.32           z (1) @ t=5.33           z (1) @ t=5.34           z (1) @ t=5.35           z (1) @ t=5.36           z (1) @ t=5.37           z (1) @ t=5.38           z (1) @ t=5.39           z (1) @ t=5.4            z (1) @ t=5.41           z (1) @ t=5.42           z (1) @ t=5.43           z (1) @ t=5.44           z (1) @ t=5.45           z (1) @ t=5.46           z (1) @ t=5.47           z (1) @ t=5.48           z (1) @ t=5.49           z (1) @ t=5.5            z (1) @ t=5.51           z (1) @ t=5.52           z (1) @ t=5.53           z (1) @ t=5.54           z (1) @ t=5.55           z (1) @ t=5.56           z (1) @ t=5.57           z (1) @ t=5.58           z (1) @ t=5.59           z (1) @ t=5.6            z (1) @ t=5.61           z (1) @ t=5.62           z (1) @ t=5.63           z (1) @ t=5.64           z (1) @ t=5.65           z (1) @ t=5.66           z (1) @ t=5.67           z (1) @ t=5.68           z (1) @ t=5.69           z (1) @ t=5.7            z (1) @ t=5.71           z (1) @ t=5.72           z (1) @ t=5.73           z (1) @ t=5.74           z (1) @ t=5.75           z (1) @ t=5.76           z (1) @ t=5.77           z (1) @ t=5.78           z (1) @ t=5.79           z (1) @ t=5.8            z (1) @ t=5.81           z (1) @ t=5.82           z (1) @ t=5.83           z (1) @ t=5.84           z (1) @ t=5.85           z (1) @ t=5.86           z (1) @ t=5.87           z (1) @ t=5.88           z (1) @ t=5.89           z (1) @ t=5.9            z (1) @ t=5.91           z (1) @ t=5.92           z (1) @ t=5.93           z (1) @ t=5.94           z (1) @ t=5.95           z (1) @ t=5.96           z (1) @ t=5.97           z (1) @ t=5.98           z (1) @ t=5.99           z (1) @ t=6              z (1) @ t=6.01           z (1) @ t=6.02           z (1) @ t=6.03           z (1) @ t=6.04           z (1) @ t=6.05           z (1) @ t=6.06           z (1) @ t=6.07           z (1) @ t=6.08           z (1) @ t=6.09           z (1) @ t=6.1            z (1) @ t=6.11           z (1) @ t=6.12           z (1) @ t=6.13           z (1) @ t=6.14           z (1) @ t=6.15           z (1) @ t=6.16           z (1) @ t=6.17           z (1) @ t=6.18           z (1) @ t=6.19           z (1) @ t=6.2            z (1) @ t=6.21           z (1) @ t=6.22           z (1) @ t=6.23           z (1) @ t=6.24           z (1) @ t=6.25           z (1) @ t=6.26           z (1) @ t=6.27           z (1) @ t=6.28           z (1) @ t=6.29           z (1) @ t=6.3            z (1) @ t=6.31           z (1) @ t=6.32           z (1) @ t=6.33           z (1) @ t=6.34           z (1) @ t=6.35           z (1) @ t=6.36           z (1) @ t=6.37           z (1) @ t=6.38           z (1) @ t=6.39           z (1) @ t=6.4            z (1) @ t=6.41           z (1) @ t=6.42           z (1) @ t=6.43           z (1) @ t=6.44           z (1) @ t=6.45           z (1) @ t=6.46           z (1) @ t=6.47           z (1) @ t=6.48           z (1) @ t=6.49           z (1) @ t=6.5            z (1) @ t=6.51           z (1) @ t=6.52           z (1) @ t=6.53           z (1) @ t=6.54           z (1) @ t=6.55           z (1) @ t=6.56           z (1) @ t=6.57           z (1) @ t=6.58           z (1) @ t=6.59           z (1) @ t=6.6            z (1) @ t=6.61           z (1) @ t=6.62           z (1) @ t=6.63           z (1) @ t=6.64           z (1) @ t=6.65           z (1) @ t=6.66           z (1) @ t=6.67           z (1) @ t=6.68           z (1) @ t=6.69           z (1) @ t=6.7            z (1) @ t=6.71           z (1) @ t=6.72           z (1) @ t=6.73           z (1) @ t=6.74           z (1) @ t=6.75           z (1) @ t=6.76           z (1) @ t=6.77           z (1) @ t=6.78           z (1) @ t=6.79           z (1) @ t=6.8            z (1) @ t=6.81           z (1) @ t=6.82           z (1) @ t=6.83           z (1) @ t=6.84           z (1) @ t=6.85           z (1) @ t=6.86           z (1) @ t=6.87           z (1) @ t=6.88           z (1) @ t=6.89           z (1) @ t=6.9            z (1) @ t=6.91           z (1) @ t=6.92           z (1) @ t=6.93           z (1) @ t=6.94           z (1) @ t=6.95           z (1) @ t=6.96           z (1) @ t=6.97           z (1) @ t=6.98           z (1) @ t=6.99           z (1) @ t=7              z (1) @ t=7.01           z (1) @ t=7.02           z (1) @ t=7.03           z (1) @ t=7.04           z (1) @ t=7.05           z (1) @ t=7.06           z (1) @ t=7.07           z (1) @ t=7.08           z (1) @ t=7.09           z (1) @ t=7.1            z (1) @ t=7.11           z (1) @ t=7.12           z (1) @ t=7.13           z (1) @ t=7.14           z (1) @ t=7.15           z (1) @ t=7.16           z (1) @ t=7.17           z (1) @ t=7.18           z (1) @ t=7.19           z (1) @ t=7.2            z (1) @ t=7.21           z (1) @ t=7.22           z (1) @ t=7.23           z (1) @ t=7.24           z (1) @ t=7.25           z (1) @ t=7.26           z (1) @ t=7.27           z (1) @ t=7.28           z (1) @ t=7.29           z (1) @ t=7.3            z (1) @ t=7.31           z (1) @ t=7.32           z (1) @ t=7.33           z (1) @ t=7.34           z (1) @ t=7.35           z (1) @ t=7.36           z (1) @ t=7.37           z (1) @ t=7.38           z (1) @ t=7.39           z (1) @ t=7.4            z (1) @ t=7.41           z (1) @ t=7.42           z (1) @ t=7.43           z (1) @ t=7.44           z (1) @ t=7.45           z (1) @ t=7.46           z (1) @ t=7.47           z (1) @ t=7.48           z (1) @ t=7.49           z (1) @ t=7.5            z (1) @ t=7.51           z (1) @ t=7.52           z (1) @ t=7.53           z (1) @ t=7.54           z (1) @ t=7.55           z (1) @ t=7.56           z (1) @ t=7.57           z (1) @ t=7.58           z (1) @ t=7.59           z (1) @ t=7.6            z (1) @ t=7.61           z (1) @ t=7.62           z (1) @ t=7.63           z (1) @ t=7.64           z (1) @ t=7.65           z (1) @ t=7.66           z (1) @ t=7.67           z (1) @ t=7.68           z (1) @ t=7.69           z (1) @ t=7.7            z (1) @ t=7.71           z (1) @ t=7.72           z (1) @ t=7.73           z (1) @ t=7.74           z (1) @ t=7.75           z (1) @ t=7.76           z (1) @ t=7.77           z (1) @ t=7.78           z (1) @ t=7.79           z (1) @ t=7.8            z (1) @ t=7.81           z (1) @ t=7.82           z (1) @ t=7.83           z (1) @ t=7.84           z (1) @ t=7.85           z (1) @ t=7.86           z (1) @ t=7.87           z (1) @ t=7.88           z (1) @ t=7.89           z (1) @ t=7.9            z (1) @ t=7.91           z (1) @ t=7.92           z (1) @ t=7.93           z (1) @ t=7.94           z (1) @ t=7.95           z (1) @ t=7.96           z (1) @ t=7.97           z (1) @ t=7.98           z (1) @ t=7.99           z (1) @ t=8              z (1) @ t=8.01           z (1) @ t=8.02           z (1) @ t=8.03           z (1) @ t=8.04           z (1) @ t=8.05           z (1) @ t=8.06           z (1) @ t=8.07           z (1) @ t=8.08           z (1) @ t=8.09           z (1) @ t=8.1            z (1) @ t=8.11           z (1) @ t=8.12           z (1) @ t=8.13           z (1) @ t=8.14           z (1) @ t=8.15           z (1) @ t=8.16           z (1) @ t=8.17           z (1) @ t=8.18           z (1) @ t=8.19           z (1) @ t=8.2            z (1) @ t=8.21           z (1) @ t=8.22           z (1) @ t=8.23           z (1) @ t=8.24           z (1) @ t=8.25           z (1) @ t=8.26           z (1) @ t=8.27           z (1) @ t=8.28           z (1) @ t=8.29           z (1) @ t=8.3            z (1) @ t=8.31           z (1) @ t=8.32           z (1) @ t=8.33           z (1) @ t=8.34           z (1) @ t=8.35           z (1) @ t=8.36           z (1) @ t=8.37           z (1) @ t=8.38           z (1) @ t=8.39           z (1) @ t=8.4            z (1) @ t=8.41           z (1) @ t=8.42           z (1) @ t=8.43           z (1) @ t=8.44           z (1) @ t=8.45           z (1) @ t=8.46           z (1) @ t=8.47           z (1) @ t=8.48           z (1) @ t=8.49           z (1) @ t=8.5            z (1) @ t=8.51           z (1) @ t=8.52           z (1) @ t=8.53           z (1) @ t=8.54           z (1) @ t=8.55           z (1) @ t=8.56           z (1) @ t=8.57           z (1) @ t=8.58           z (1) @ t=8.59           z (1) @ t=8.6            z (1) @ t=8.61           z (1) @ t=8.62           z (1) @ t=8.63           z (1) @ t=8.64           z (1) @ t=8.65           z (1) @ t=8.66           z (1) @ t=8.67           z (1) @ t=8.68           z (1) @ t=8.69           z (1) @ t=8.7            z (1) @ t=8.71           z (1) @ t=8.72           z (1) @ t=8.73           z (1) @ t=8.74           z (1) @ t=8.75           z (1) @ t=8.76           z (1) @ t=8.77           z (1) @ t=8.78           z (1) @ t=8.79           z (1) @ t=8.8            z (1) @ t=8.81           z (1) @ t=8.82           z (1) @ t=8.83           z (1) @ t=8.84           z (1) @ t=8.85           z (1) @ t=8.86           z (1) @ t=8.87           z (1) @ t=8.88           z (1) @ t=8.89           z (1) @ t=8.9            z (1) @ t=8.91           z (1) @ t=8.92           z (1) @ t=8.93           z (1) @ t=8.94           z (1) @ t=8.95           z (1) @ t=8.96           z (1) @ t=8.97           z (1) @ t=8.98           z (1) @ t=8.99           z (1) @ t=9              z (1) @ t=9.01           z (1) @ t=9.02           z (1) @ t=9.03           z (1) @ t=9.04           z (1) @ t=9.05           z (1) @ t=9.06           z (1) @ t=9.07           z (1) @ t=9.08           z (1) @ t=9.09           z (1) @ t=9.1            z (1) @ t=9.11           z (1) @ t=9.12           z (1) @ t=9.13           z (1) @ t=9.14           z (1) @ t=9.15           z (1) @ t=9.16           z (1) @ t=9.17           z (1) @ t=9.18           z (1) @ t=9.19           z (1) @ t=9.2            z (1) @ t=9.21           z (1) @ t=9.22           z (1) @ t=9.23           z (1) @ t=9.24           z (1) @ t=9.25           z (1) @ t=9.26           z (1) @ t=9.27           z (1) @ t=9.28           z (1) @ t=9.29           z (1) @ t=9.3            z (1) @ t=9.31           z (1) @ t=9.32           z (1) @ t=9.33           z (1) @ t=9.34           z (1) @ t=9.35           z (1) @ t=9.36           z (1) @ t=9.37           z (1) @ t=9.38           z (1) @ t=9.39           z (1) @ t=9.4            z (1) @ t=9.41           z (1) @ t=9.42           z (1) @ t=9.43           z (1) @ t=9.44           z (1) @ t=9.45           z (1) @ t=9.46           z (1) @ t=9.47           z (1) @ t=9.48           z (1) @ t=9.49           z (1) @ t=9.5            z (1) @ t=9.51           z (1) @ t=9.52           z (1) @ t=9.53           z (1) @ t=9.54           z (1) @ t=9.55           z (1) @ t=9.56           z (1) @ t=9.57           z (1) @ t=9.58           z (1) @ t=9.59           z (1) @ t=9.6            z (1) @ t=9.61           z (1) @ t=9.62           z (1) @ t=9.63           z (1) @ t=9.64           z (1) @ t=9.65           z (1) @ t=9.66           z (1) @ t=9.67           z (1) @ t=9.68           z (1) @ t=9.69           z (1) @ t=9.7            z (1) @ t=9.71           z (1) @ t=9.72           z (1) @ t=9.73           z (1) @ t=9.74           z (1) @ t=9.75           z (1) @ t=9.76           z (1) @ t=9.77           z (1) @ t=9.78           z (1) @ t=9.79           z (1) @ t=9.8            z (1) @ t=9.81           z (1) @ t=9.82           z (1) @ t=9.83           z (1) @ t=9.84           z (1) @ t=9.85           z (1) @ t=9.86           z (1) @ t=9.87           z (1) @ t=9.88           z (1) @ t=9.89           z (1) @ t=9.9            z (1) @ t=9.91           z (1) @ t=9.92           z (1) @ t=9.93           z (1) @ t=9.94           z (1) @ t=9.95           z (1) @ t=9.96           z (1) @ t=9.97           z (1) @ t=9.98           z (1) @ t=9.99           z (1) @ t=10