% Model:              Chap1Ex4_MIMO_HeatEquation.mph
% Version:            COMSOL 4.3.2.189
% Date:               Nov 5 2013, 10:35
% Dimension:          1
% Nodes:              30
% Expressions:        402
% Description:        , 
% x                       C1(z) (1) @ t=0          yr1 @ t=0                C1(z) (1) @ t=0.01       yr1 @ t=0.01             C1(z) (1) @ t=0.02       yr1 @ t=0.02             C1(z) (1) @ t=0.03       yr1 @ t=0.03             C1(z) (1) @ t=0.04       yr1 @ t=0.04             C1(z) (1) @ t=0.05       yr1 @ t=0.05             C1(z) (1) @ t=0.06       yr1 @ t=0.06             C1(z) (1) @ t=0.07       yr1 @ t=0.07             C1(z) (1) @ t=0.08       yr1 @ t=0.08             C1(z) (1) @ t=0.09       yr1 @ t=0.09             C1(z) (1) @ t=0.1        yr1 @ t=0.1              C1(z) (1) @ t=0.11       yr1 @ t=0.11             C1(z) (1) @ t=0.12       yr1 @ t=0.12             C1(z) (1) @ t=0.13       yr1 @ t=0.13             C1(z) (1) @ t=0.14       yr1 @ t=0.14             C1(z) (1) @ t=0.15       yr1 @ t=0.15             C1(z) (1) @ t=0.16       yr1 @ t=0.16             C1(z) (1) @ t=0.17       yr1 @ t=0.17             C1(z) (1) @ t=0.18       yr1 @ t=0.18             C1(z) (1) @ t=0.19       yr1 @ t=0.19             C1(z) (1) @ t=0.2        yr1 @ t=0.2              C1(z) (1) @ t=0.21       yr1 @ t=0.21             C1(z) (1) @ t=0.22       yr1 @ t=0.22             C1(z) (1) @ t=0.23       yr1 @ t=0.23             C1(z) (1) @ t=0.24       yr1 @ t=0.24             C1(z) (1) @ t=0.25       yr1 @ t=0.25             C1(z) (1) @ t=0.26       yr1 @ t=0.26             C1(z) (1) @ t=0.27       yr1 @ t=0.27             C1(z) (1) @ t=0.28       yr1 @ t=0.28             C1(z) (1) @ t=0.29       yr1 @ t=0.29             C1(z) (1) @ t=0.3        yr1 @ t=0.3              C1(z) (1) @ t=0.31       yr1 @ t=0.31             C1(z) (1) @ t=0.32       yr1 @ t=0.32             C1(z) (1) @ t=0.33       yr1 @ t=0.33             C1(z) (1) @ t=0.34       yr1 @ t=0.34             C1(z) (1) @ t=0.35       yr1 @ t=0.35             C1(z) (1) @ t=0.36       yr1 @ t=0.36             C1(z) (1) @ t=0.37       yr1 @ t=0.37             C1(z) (1) @ t=0.38       yr1 @ t=0.38             C1(z) (1) @ t=0.39       yr1 @ t=0.39             C1(z) (1) @ t=0.4        yr1 @ t=0.4              C1(z) (1) @ t=0.41       yr1 @ t=0.41             C1(z) (1) @ t=0.42       yr1 @ t=0.42             C1(z) (1) @ t=0.43       yr1 @ t=0.43             C1(z) (1) @ t=0.44       yr1 @ t=0.44             C1(z) (1) @ t=0.45       yr1 @ t=0.45             C1(z) (1) @ t=0.46       yr1 @ t=0.46             C1(z) (1) @ t=0.47       yr1 @ t=0.47             C1(z) (1) @ t=0.48       yr1 @ t=0.48             C1(z) (1) @ t=0.49       yr1 @ t=0.49             C1(z) (1) @ t=0.5        yr1 @ t=0.5              C1(z) (1) @ t=0.51       yr1 @ t=0.51             C1(z) (1) @ t=0.52       yr1 @ t=0.52             C1(z) (1) @ t=0.53       yr1 @ t=0.53             C1(z) (1) @ t=0.54       yr1 @ t=0.54             C1(z) (1) @ t=0.55       yr1 @ t=0.55             C1(z) (1) @ t=0.56       yr1 @ t=0.56             C1(z) (1) @ t=0.57       yr1 @ t=0.57             C1(z) (1) @ t=0.58       yr1 @ t=0.58             C1(z) (1) @ t=0.59       yr1 @ t=0.59             C1(z) (1) @ t=0.6        yr1 @ t=0.6              C1(z) (1) @ t=0.61       yr1 @ t=0.61             C1(z) (1) @ t=0.62       yr1 @ t=0.62             C1(z) (1) @ t=0.63       yr1 @ t=0.63             C1(z) (1) @ t=0.64       yr1 @ t=0.64             C1(z) (1) @ t=0.65       yr1 @ t=0.65             C1(z) (1) @ t=0.66       yr1 @ t=0.66             C1(z) (1) @ t=0.67       yr1 @ t=0.67             C1(z) (1) @ t=0.68       yr1 @ t=0.68             C1(z) (1) @ t=0.69       yr1 @ t=0.69             C1(z) (1) @ t=0.7        yr1 @ t=0.7              C1(z) (1) @ t=0.71       yr1 @ t=0.71             C1(z) (1) @ t=0.72       yr1 @ t=0.72             C1(z) (1) @ t=0.73       yr1 @ t=0.73             C1(z) (1) @ t=0.74       yr1 @ t=0.74             C1(z) (1) @ t=0.75       yr1 @ t=0.75             C1(z) (1) @ t=0.76       yr1 @ t=0.76             C1(z) (1) @ t=0.77       yr1 @ t=0.77             C1(z) (1) @ t=0.78       yr1 @ t=0.78             C1(z) (1) @ t=0.79       yr1 @ t=0.79             C1(z) (1) @ t=0.8        yr1 @ t=0.8              C1(z) (1) @ t=0.81       yr1 @ t=0.81             C1(z) (1) @ t=0.82       yr1 @ t=0.82             C1(z) (1) @ t=0.83       yr1 @ t=0.83             C1(z) (1) @ t=0.84       yr1 @ t=0.84             C1(z) (1) @ t=0.85       yr1 @ t=0.85             C1(z) (1) @ t=0.86       yr1 @ t=0.86             C1(z) (1) @ t=0.87       yr1 @ t=0.87             C1(z) (1) @ t=0.88       yr1 @ t=0.88             C1(z) (1) @ t=0.89       yr1 @ t=0.89             C1(z) (1) @ t=0.9        yr1 @ t=0.9              C1(z) (1) @ t=0.91       yr1 @ t=0.91             C1(z) (1) @ t=0.92       yr1 @ t=0.92             C1(z) (1) @ t=0.93       yr1 @ t=0.93             C1(z) (1) @ t=0.94       yr1 @ t=0.94             C1(z) (1) @ t=0.95       yr1 @ t=0.95             C1(z) (1) @ t=0.96       yr1 @ t=0.96             C1(z) (1) @ t=0.97       yr1 @ t=0.97             C1(z) (1) @ t=0.98       yr1 @ t=0.98             C1(z) (1) @ t=0.99       yr1 @ t=0.99             C1(z) (1) @ t=1          yr1 @ t=1                C1(z) (1) @ t=1.01       yr1 @ t=1.01             C1(z) (1) @ t=1.02       yr1 @ t=1.02             C1(z) (1) @ t=1.03       yr1 @ t=1.03             C1(z) (1) @ t=1.04       yr1 @ t=1.04             C1(z) (1) @ t=1.05       yr1 @ t=1.05             C1(z) (1) @ t=1.06       yr1 @ t=1.06             C1(z) (1) @ t=1.07       yr1 @ t=1.07             C1(z) (1) @ t=1.08       yr1 @ t=1.08             C1(z) (1) @ t=1.09       yr1 @ t=1.09             C1(z) (1) @ t=1.1        yr1 @ t=1.1              C1(z) (1) @ t=1.11       yr1 @ t=1.11             C1(z) (1) @ t=1.12       yr1 @ t=1.12             C1(z) (1) @ t=1.13       yr1 @ t=1.13             C1(z) (1) @ t=1.14       yr1 @ t=1.14             C1(z) (1) @ t=1.15       yr1 @ t=1.15             C1(z) (1) @ t=1.16       yr1 @ t=1.16             C1(z) (1) @ t=1.17       yr1 @ t=1.17             C1(z) (1) @ t=1.18       yr1 @ t=1.18             C1(z) (1) @ t=1.19       yr1 @ t=1.19             C1(z) (1) @ t=1.2        yr1 @ t=1.2              C1(z) (1) @ t=1.21       yr1 @ t=1.21             C1(z) (1) @ t=1.22       yr1 @ t=1.22             C1(z) (1) @ t=1.23       yr1 @ t=1.23             C1(z) (1) @ t=1.24       yr1 @ t=1.24             C1(z) (1) @ t=1.25       yr1 @ t=1.25             C1(z) (1) @ t=1.26       yr1 @ t=1.26             C1(z) (1) @ t=1.27       yr1 @ t=1.27             C1(z) (1) @ t=1.28       yr1 @ t=1.28             C1(z) (1) @ t=1.29       yr1 @ t=1.29             C1(z) (1) @ t=1.3        yr1 @ t=1.3              C1(z) (1) @ t=1.31       yr1 @ t=1.31             C1(z) (1) @ t=1.32       yr1 @ t=1.32             C1(z) (1) @ t=1.33       yr1 @ t=1.33             C1(z) (1) @ t=1.34       yr1 @ t=1.34             C1(z) (1) @ t=1.35       yr1 @ t=1.35             C1(z) (1) @ t=1.36       yr1 @ t=1.36             C1(z) (1) @ t=1.37       yr1 @ t=1.37             C1(z) (1) @ t=1.38       yr1 @ t=1.38             C1(z) (1) @ t=1.39       yr1 @ t=1.39             C1(z) (1) @ t=1.4        yr1 @ t=1.4              C1(z) (1) @ t=1.41       yr1 @ t=1.41             C1(z) (1) @ t=1.42       yr1 @ t=1.42             C1(z) (1) @ t=1.43       yr1 @ t=1.43             C1(z) (1) @ t=1.44       yr1 @ t=1.44             C1(z) (1) @ t=1.45       yr1 @ t=1.45             C1(z) (1) @ t=1.46       yr1 @ t=1.46             C1(z) (1) @ t=1.47       yr1 @ t=1.47             C1(z) (1) @ t=1.48       yr1 @ t=1.48             C1(z) (1) @ t=1.49       yr1 @ t=1.49             C1(z) (1) @ t=1.5        yr1 @ t=1.5              C1(z) (1) @ t=1.51       yr1 @ t=1.51             C1(z) (1) @ t=1.52       yr1 @ t=1.52             C1(z) (1) @ t=1.53       yr1 @ t=1.53             C1(z) (1) @ t=1.54       yr1 @ t=1.54             C1(z) (1) @ t=1.55       yr1 @ t=1.55             C1(z) (1) @ t=1.56       yr1 @ t=1.56             C1(z) (1) @ t=1.57       yr1 @ t=1.57             C1(z) (1) @ t=1.58       yr1 @ t=1.58             C1(z) (1) @ t=1.59       yr1 @ t=1.59             C1(z) (1) @ t=1.6        yr1 @ t=1.6              C1(z) (1) @ t=1.61       yr1 @ t=1.61             C1(z) (1) @ t=1.62       yr1 @ t=1.62             C1(z) (1) @ t=1.63       yr1 @ t=1.63             C1(z) (1) @ t=1.64       yr1 @ t=1.64             C1(z) (1) @ t=1.65       yr1 @ t=1.65             C1(z) (1) @ t=1.66       yr1 @ t=1.66             C1(z) (1) @ t=1.67       yr1 @ t=1.67             C1(z) (1) @ t=1.68       yr1 @ t=1.68             C1(z) (1) @ t=1.69       yr1 @ t=1.69             C1(z) (1) @ t=1.7        yr1 @ t=1.7              C1(z) (1) @ t=1.71       yr1 @ t=1.71             C1(z) (1) @ t=1.72       yr1 @ t=1.72             C1(z) (1) @ t=1.73       yr1 @ t=1.73             C1(z) (1) @ t=1.74       yr1 @ t=1.74             C1(z) (1) @ t=1.75       yr1 @ t=1.75             C1(z) (1) @ t=1.76       yr1 @ t=1.76             C1(z) (1) @ t=1.77       yr1 @ t=1.77             C1(z) (1) @ t=1.78       yr1 @ t=1.78             C1(z) (1) @ t=1.79       yr1 @ t=1.79             C1(z) (1) @ t=1.8        yr1 @ t=1.8              C1(z) (1) @ t=1.81       yr1 @ t=1.81             C1(z) (1) @ t=1.82       yr1 @ t=1.82             C1(z) (1) @ t=1.83       yr1 @ t=1.83             C1(z) (1) @ t=1.84       yr1 @ t=1.84             C1(z) (1) @ t=1.85       yr1 @ t=1.85             C1(z) (1) @ t=1.86       yr1 @ t=1.86             C1(z) (1) @ t=1.87       yr1 @ t=1.87             C1(z) (1) @ t=1.88       yr1 @ t=1.88             C1(z) (1) @ t=1.89       yr1 @ t=1.89             C1(z) (1) @ t=1.9        yr1 @ t=1.9              C1(z) (1) @ t=1.91       yr1 @ t=1.91             C1(z) (1) @ t=1.92       yr1 @ t=1.92             C1(z) (1) @ t=1.93       yr1 @ t=1.93             C1(z) (1) @ t=1.94       yr1 @ t=1.94             C1(z) (1) @ t=1.95       yr1 @ t=1.95             C1(z) (1) @ t=1.96       yr1 @ t=1.96             C1(z) (1) @ t=1.97       yr1 @ t=1.97             C1(z) (1) @ t=1.98       yr1 @ t=1.98             C1(z) (1) @ t=1.99       yr1 @ t=1.99             C1(z) (1) @ t=2          yr1 @ t=2
0.02                      0.4502755328151642       0.75                     0.4282396809632213       0.7499875001041663       0.4066713432833569       0.7499500016666445       0.38588832602133694      0.7498875084372469       0.3665366587176971       0.7498000266652445       0.34898648843629027      0.7496875650987416       0.3333282864980826       0.7495501349838011       0.3195939596178685       0.7493877500633199       0.3076466195494989       0.7492004265756549       0.2973968241976557       0.7489881832529985       0.28868963116093865      0.7487510413195064       0.28140381536315373      0.7484890244891742       0.2754055126130175       0.7482021589634665       0.27057229994727444      0.7478904734286971       0.2667916814499934       0.7475539990531592       0.26395713189682496      0.7471927694840106       0.2619716560644686       0.7468068208439067       0.26074673134059617      0.7463961917273902       0.2602012343496671       0.7459609231970303       0.2602614565926989       0.7455010587793176       0.26086135609111705      0.7450166444603104       0.26194040811666086      0.7445077286810371       0.26344435282495166      0.7439743623326514       0.265322931482963        0.7434165987513437       0.26753056410916837      0.7428344937130074       0.2700271646756823       0.7422281054276612       0.2727765755006119       0.7415974945336283       0.2757437617244055       0.7409427240914727       0.27889927800207615      0.7402638595776927       0.28221612406333324      0.7395609688781744       0.28567001679548004      0.7388341222814014       0.2892377574500898       0.7380833924714283       0.2928997526418187       0.7373088545206102       0.2966383067961248       0.7365105858820967       0.3004366479454937       0.7356886663820865       0.304280014576559        0.7348431782118447       0.30815530296992943      0.7339742059194837       0.3120509380754236       0.7330818364015086       0.315955991505075        0.7321661588941275       0.3198609121150098       0.7312272649643283       0.32375751663962926      0.7302652485007213       0.3276380660606613       0.7292802057041513       0.33149500381259944      0.728272235078077        0.3353223397308493       0.7272414374187213       0.3391156626935908       0.7261879158049909       0.3428692346800028       0.7251117755881692       0.34657720209519316      0.7240131243813813       0.3502375580804208       0.7228920720488322       0.3538472440220659       0.721748730694821        0.3574027312130344       0.7205832146525304       0.3609017968931518       0.7193956404725932       0.364342373250736        0.7181861269114378       0.3677225651213975       0.7169547949194125       0.37104029211602657      0.7157017676286903       0.3742939993356388       0.714427170340956        0.37748222530054826      0.7131311305148764       0.3806044307464864       0.711813777753354        0.38365995942202763      0.7104752437905671       0.3866483258496397       0.7091156624787968       0.3895688016464082       0.7077351697750409       0.39242041494476076      0.7063339037274196       0.3952033351836129       0.7049120044613699       0.3979174786107859       0.7034696141656335       0.4005626536458381       0.702006877078038        0.40313912509308547      0.7005239394710732       0.4056471971324136       0.6990209496372639       0.4080865103969887       0.6974980578743413       0.4104574164207414       0.6959554164702123       0.4127603037384739       0.694393179687732        0.41499548299694583      0.6928115037492766       0.4171633119205123       0.691210546821122        0.419264303724488        0.6895904689976271       0.42129891030326955      0.6879514322852238       0.4232672977205978       0.6862936005862176       0.4251700889719028       0.684617139682397        0.42700779407884587      0.6829222172184553       0.4287809545540302       0.6812090026852263       0.43049014340100145      0.6794776674027359       0.4321359651142471       0.6777283845030693       0.43371914304751025      0.675961328913059        0.43524038253096015      0.6741766773367913       0.43670037299666997      0.6723746082379367       0.438099874598786        0.6705553018219034       0.43943968208181816      0.6687189400178167       0.4407206247806404       0.6668657064603271       0.441942364269838        0.6649957864712456       0.4431058293933573       0.663109367041013        0.44421194390533464      0.6612066368100002       0.445261404202717        0.6592877860496451       0.44625491617711555      0.6573530066434242       0.4471931952148048       0.6554024920676661       0.4480768407509264       0.6534364373722029       0.44890662668422104      0.6514550391608657       0.44968328250078665      0.6494584955718246       0.45040753949817064      0.6474470062577745       0.4510801365337724       0.6454207723659708       0.4517017664740486       0.6433799965181142       0.4522725153604972       0.6413248827900886       0.45279340923510314      0.6392556366915543       0.4532651033972956       0.6371724651453969       0.45368824972803373      0.6350755764670349       0.45406349668980717      0.6329651803435888       0.4543915246987386       0.6308414878129124       0.4546731068317745       0.6287047112424888       0.4549088287691813       0.6265550643081946       0.4550993531645528       0.6243927619729317       0.4552453419021821       0.6222180204651319       0.4553474560970616       0.6200310572571335       0.45540627803915756      0.617832091043435        0.455422339374677        0.6156213417188252       0.4553963506211866       0.6133990303563943       0.4553289329753166       0.6111653791854267       0.4552207034119818       0.608920611569178        0.4550722746843808       0.6066649519825393       0.45488432519242394      0.6043986259895895       0.45465750860208404      0.6021218602210393       0.45439240465768416      0.5998348823515683       0.45408963236589095      0.5975379210770576       0.4537498086495544       0.5952312060917204       0.4533735483477069       0.5929149680651332       0.4529614080217139       0.5905894386191683       0.45251398107675284      0.5882548503048326       0.4520318726377164       0.5859114365790118       0.4515156656230967       0.5835594317811257       0.45096593701622406      0.581199071109694        0.45038325759781694      0.5788305905988171       0.44976824291642914      0.5764542270945723       0.449121447914254        0.5740702182313296       0.44844343180177265      0.5716788024079889       0.4477347550996071       0.5692802187641394       0.4469959735638872       0.5668747071561469       0.44622763845247987      0.5644625081331675       0.4454303380903518       0.5620438629130933       0.44460460136960617      0.5596190133584308       0.44375097449511874      0.5571882019521148       0.44287000031116264      0.5547516717732603       0.4419622183550939       0.5523096664728548       0.44102816505311526      0.5498624302493932       0.4400683744685731       0.5474102078244586       0.4390833762781834       0.5449532444182499       0.43807369761116044      0.5424917857250602       0.43703986260670946      0.5400260778887078       0.43598239247121007      0.5375563674779215       0.4349018043534657       0.5350829014616841       0.4337986105026247       0.5326059271845364       0.43267332444268924      0.5301256923418417       0.4315264550366678       0.5276424449550174       0.43035850830045425      0.5251564333467329       0.42916998744572155      0.5226679061160774       0.42796138044979537      0.5201771121137002       0.42673316863818345      0.5176843004169257       0.42548584999166983      0.5151897203048464       0.4242199087324845       0.5126936212333948       0.4229358251253126       0.5101962528103977       0.4216340754236207       0.5076978647706165       0.4203151588390329       0.5051987069507731       0.4189795590313858       0.5026990292645669       0.4176277394092901       0.5001990816776833       0.4162601726967736       0.49769911418279794      0.4148773294854488       0.4951993767745768       0.41347967833081617      0.4927001194246778       0.41206762932669466      0.49020159205675307      0.4106416400362929       0.4877040445214574       0.4092021669794513       0.48520772657146294      0.4077496501798054       0.48271288783648447      0.4062845246411176       0.4802197777983165       0.4048072202040897       0.4777286457658852       0.4033183126360305       0.475239740850318        0.40181819448950795      0.47275331194003223      0.40030731042628853      0.47026960767584697      0.3987861147076346       0.4677888764261188       0.39725506316417025      0.4653113662619056       0.395714602933314        0.46283732493215907      0.3941650264168306       0.4603669998389506       0.392606843098342        0.45790063801273073      0.3910404749495098       0.455438486087627        0.3894663397714393       0.45298079027677995      0.38788485101126413      0.4505277963477228       0.38629641540010823      0.44807974959780406      0.3847014276503124       0.44563689482965885      0.3831002894709873       0.44319947632672824      0.38149339204953087      0.44076773782883133      0.37988112078939656      0.43834192250779147      0.378263855089852        0.4359222729431193       0.3766420085406083       0.4335090310977549       0.37501602728096267      0.43110243829387174      0.373386254264885        0.4287027351887448       0.3717530754855172       0.42631016175068476      0.3701168753445778       0.42392495723504164      0.3684780368237245       0.4215473601602794       0.3668368939326859       0.4191776082841241       0.3651937829759322       0.41681593857978866      0.36354908950827014      0.41446258721227547      0.3619031655273126       0.41211778951476         0.36025635798959355      0.4097817799650582       0.35860900866732626      0.4074547921621783       0.35696157281515395      0.40513705880296136      0.3553144228754266       0.402828811658812        0.35366789005756827      0.400530281552521        0.35202234499233537      0.39824169833518364      0.35037816075315437      0.3959632908632144