% Model:              Chap1Ex3_SISO_DampedWaveEquation.mph
% Version:            COMSOL 4.3.2.189
% Date:               Nov 5 2013, 10:01
% Dimension:          1
% Nodes:              29
% Expressions:        801
% Description:        Dependent variable z
% x                       z (1) @ t=0              z (1) @ t=0.025          z (1) @ t=0.05           z (1) @ t=0.075          z (1) @ t=0.1            z (1) @ t=0.125          z (1) @ t=0.15           z (1) @ t=0.175          z (1) @ t=0.2            z (1) @ t=0.225          z (1) @ t=0.25           z (1) @ t=0.275          z (1) @ t=0.3            z (1) @ t=0.325          z (1) @ t=0.35           z (1) @ t=0.375          z (1) @ t=0.4            z (1) @ t=0.425          z (1) @ t=0.45           z (1) @ t=0.475          z (1) @ t=0.5            z (1) @ t=0.525          z (1) @ t=0.55           z (1) @ t=0.575          z (1) @ t=0.6            z (1) @ t=0.625          z (1) @ t=0.65           z (1) @ t=0.675          z (1) @ t=0.7            z (1) @ t=0.725          z (1) @ t=0.75           z (1) @ t=0.775          z (1) @ t=0.8            z (1) @ t=0.825          z (1) @ t=0.85           z (1) @ t=0.875          z (1) @ t=0.9            z (1) @ t=0.925          z (1) @ t=0.95           z (1) @ t=0.975          z (1) @ t=1              z (1) @ t=1.025          z (1) @ t=1.05           z (1) @ t=1.075          z (1) @ t=1.1            z (1) @ t=1.125          z (1) @ t=1.15           z (1) @ t=1.175          z (1) @ t=1.2            z (1) @ t=1.225          z (1) @ t=1.25           z (1) @ t=1.275          z (1) @ t=1.3            z (1) @ t=1.325          z (1) @ t=1.35           z (1) @ t=1.375          z (1) @ t=1.4            z (1) @ t=1.425          z (1) @ t=1.45           z (1) @ t=1.475          z (1) @ t=1.5            z (1) @ t=1.525          z (1) @ t=1.55           z (1) @ t=1.575          z (1) @ t=1.6            z (1) @ t=1.625          z (1) @ t=1.65           z (1) @ t=1.675          z (1) @ t=1.7            z (1) @ t=1.725          z (1) @ t=1.75           z (1) @ t=1.775          z (1) @ t=1.8            z (1) @ t=1.825          z (1) @ t=1.85           z (1) @ t=1.875          z (1) @ t=1.9            z (1) @ t=1.925          z (1) @ t=1.95           z (1) @ t=1.975          z (1) @ t=2              z (1) @ t=2.025          z (1) @ t=2.05           z (1) @ t=2.075          z (1) @ t=2.1            z (1) @ t=2.125          z (1) @ t=2.15           z (1) @ t=2.175          z (1) @ t=2.2            z (1) @ t=2.225          z (1) @ t=2.25           z (1) @ t=2.275          z (1) @ t=2.3            z (1) @ t=2.325          z (1) @ t=2.35           z (1) @ t=2.375          z (1) @ t=2.4            z (1) @ t=2.425          z (1) @ t=2.45           z (1) @ t=2.475          z (1) @ t=2.5            z (1) @ t=2.525          z (1) @ t=2.55           z (1) @ t=2.575          z (1) @ t=2.6            z (1) @ t=2.625          z (1) @ t=2.65           z (1) @ t=2.675          z (1) @ t=2.7            z (1) @ t=2.725          z (1) @ t=2.75           z (1) @ t=2.775          z (1) @ t=2.8            z (1) @ t=2.825          z (1) @ t=2.85           z (1) @ t=2.875          z (1) @ t=2.9            z (1) @ t=2.925          z (1) @ t=2.95           z (1) @ t=2.975          z (1) @ t=3              z (1) @ t=3.025          z (1) @ t=3.05           z (1) @ t=3.075          z (1) @ t=3.1            z (1) @ t=3.125          z (1) @ t=3.15           z (1) @ t=3.175          z (1) @ t=3.2            z (1) @ t=3.225          z (1) @ t=3.25           z (1) @ t=3.275          z (1) @ t=3.3            z (1) @ t=3.325          z (1) @ t=3.35           z (1) @ t=3.375          z (1) @ t=3.4            z (1) @ t=3.425          z (1) @ t=3.45           z (1) @ t=3.475          z (1) @ t=3.5            z (1) @ t=3.525          z (1) @ t=3.55           z (1) @ t=3.575          z (1) @ t=3.6            z (1) @ t=3.625          z (1) @ t=3.65           z (1) @ t=3.675          z (1) @ t=3.7            z (1) @ t=3.725          z (1) @ t=3.75           z (1) @ t=3.775          z (1) @ t=3.8            z (1) @ t=3.825          z (1) @ t=3.85           z (1) @ t=3.875          z (1) @ t=3.9            z (1) @ t=3.925          z (1) @ t=3.95           z (1) @ t=3.975          z (1) @ t=4              z (1) @ t=4.025          z (1) @ t=4.05           z (1) @ t=4.075          z (1) @ t=4.1            z (1) @ t=4.125          z (1) @ t=4.15           z (1) @ t=4.175          z (1) @ t=4.2            z (1) @ t=4.225          z (1) @ t=4.25           z (1) @ t=4.275          z (1) @ t=4.3            z (1) @ t=4.325          z (1) @ t=4.35           z (1) @ t=4.375          z (1) @ t=4.4            z (1) @ t=4.425          z (1) @ t=4.45           z (1) @ t=4.475          z (1) @ t=4.5            z (1) @ t=4.525          z (1) @ t=4.55           z (1) @ t=4.575          z (1) @ t=4.6            z (1) @ t=4.625          z (1) @ t=4.65           z (1) @ t=4.675          z (1) @ t=4.7            z (1) @ t=4.725          z (1) @ t=4.75           z (1) @ t=4.775          z (1) @ t=4.8            z (1) @ t=4.825          z (1) @ t=4.85           z (1) @ t=4.875          z (1) @ t=4.9            z (1) @ t=4.925          z (1) @ t=4.95           z (1) @ t=4.975          z (1) @ t=5              z (1) @ t=5.025          z (1) @ t=5.05           z (1) @ t=5.075          z (1) @ t=5.1            z (1) @ t=5.125          z (1) @ t=5.15           z (1) @ t=5.175          z (1) @ t=5.2            z (1) @ t=5.225          z (1) @ t=5.25           z (1) @ t=5.275          z (1) @ t=5.3            z (1) @ t=5.325          z (1) @ t=5.35           z (1) @ t=5.375          z (1) @ t=5.4            z (1) @ t=5.425          z (1) @ t=5.45           z (1) @ t=5.475          z (1) @ t=5.5            z (1) @ t=5.525          z (1) @ t=5.55           z (1) @ t=5.575          z (1) @ t=5.6            z (1) @ t=5.625          z (1) @ t=5.65           z (1) @ t=5.675          z (1) @ t=5.7            z (1) @ t=5.725          z (1) @ t=5.75           z (1) @ t=5.775          z (1) @ t=5.8            z (1) @ t=5.825          z (1) @ t=5.85           z (1) @ t=5.875          z (1) @ t=5.9            z (1) @ t=5.925          z (1) @ t=5.95           z (1) @ t=5.975          z (1) @ t=6              z (1) @ t=6.025          z (1) @ t=6.05           z (1) @ t=6.075          z (1) @ t=6.1            z (1) @ t=6.125          z (1) @ t=6.15           z (1) @ t=6.175          z (1) @ t=6.2            z (1) @ t=6.225          z (1) @ t=6.25           z (1) @ t=6.275          z (1) @ t=6.3            z (1) @ t=6.325          z (1) @ t=6.35           z (1) @ t=6.375          z (1) @ t=6.4            z (1) @ t=6.425          z (1) @ t=6.45           z (1) @ t=6.475          z (1) @ t=6.5            z (1) @ t=6.525          z (1) @ t=6.55           z (1) @ t=6.575          z (1) @ t=6.6            z (1) @ t=6.625          z (1) @ t=6.65           z (1) @ t=6.675          z (1) @ t=6.7            z (1) @ t=6.725          z (1) @ t=6.75           z (1) @ t=6.775          z (1) @ t=6.8            z (1) @ t=6.825          z (1) @ t=6.85           z (1) @ t=6.875          z (1) @ t=6.9            z (1) @ t=6.925          z (1) @ t=6.95           z (1) @ t=6.975          z (1) @ t=7              z (1) @ t=7.025          z (1) @ t=7.05           z (1) @ t=7.075          z (1) @ t=7.1            z (1) @ t=7.125          z (1) @ t=7.15           z (1) @ t=7.175          z (1) @ t=7.2            z (1) @ t=7.225          z (1) @ t=7.25           z (1) @ t=7.275          z (1) @ t=7.3            z (1) @ t=7.325          z (1) @ t=7.35           z (1) @ t=7.375          z (1) @ t=7.4            z (1) @ t=7.425          z (1) @ t=7.45           z (1) @ t=7.475          z (1) @ t=7.5            z (1) @ t=7.525          z (1) @ t=7.55           z (1) @ t=7.575          z (1) @ t=7.6            z (1) @ t=7.625          z (1) @ t=7.65           z (1) @ t=7.675          z (1) @ t=7.7            z (1) @ t=7.725          z (1) @ t=7.75           z (1) @ t=7.775          z (1) @ t=7.8            z (1) @ t=7.825          z (1) @ t=7.85           z (1) @ t=7.875          z (1) @ t=7.9            z (1) @ t=7.925          z (1) @ t=7.95           z (1) @ t=7.975          z (1) @ t=8              z (1) @ t=8.025          z (1) @ t=8.05           z (1) @ t=8.075          z (1) @ t=8.1            z (1) @ t=8.125          z (1) @ t=8.15           z (1) @ t=8.175          z (1) @ t=8.2            z (1) @ t=8.225          z (1) @ t=8.25           z (1) @ t=8.275          z (1) @ t=8.3            z (1) @ t=8.325          z (1) @ t=8.35           z (1) @ t=8.375          z (1) @ t=8.4            z (1) @ t=8.425          z (1) @ t=8.45           z (1) @ t=8.475          z (1) @ t=8.5            z (1) @ t=8.525          z (1) @ t=8.55           z (1) @ t=8.575          z (1) @ t=8.6            z (1) @ t=8.625          z (1) @ t=8.65           z (1) @ t=8.675          z (1) @ t=8.7            z (1) @ t=8.725          z (1) @ t=8.75           z (1) @ t=8.775          z (1) @ t=8.8            z (1) @ t=8.825          z (1) @ t=8.85           z (1) @ t=8.875          z (1) @ t=8.9            z (1) @ t=8.925          z (1) @ t=8.95           z (1) @ t=8.975          z (1) @ t=9              z (1) @ t=9.025          z (1) @ t=9.05           z (1) @ t=9.075          z (1) @ t=9.1            z (1) @ t=9.125          z (1) @ t=9.15           z (1) @ t=9.175          z (1) @ t=9.2            z (1) @ t=9.225          z (1) @ t=9.25           z (1) @ t=9.275          z (1) @ t=9.3            z (1) @ t=9.325          z (1) @ t=9.35           z (1) @ t=9.375          z (1) @ t=9.4            z (1) @ t=9.425          z (1) @ t=9.45           z (1) @ t=9.475          z (1) @ t=9.5            z (1) @ t=9.525          z (1) @ t=9.55           z (1) @ t=9.575          z (1) @ t=9.6            z (1) @ t=9.625          z (1) @ t=9.65           z (1) @ t=9.675          z (1) @ t=9.7            z (1) @ t=9.725          z (1) @ t=9.75           z (1) @ t=9.775          z (1) @ t=9.8            z (1) @ t=9.825          z (1) @ t=9.85           z (1) @ t=9.875          z (1) @ t=9.9            z (1) @ t=9.925          z (1) @ t=9.95           z (1) @ t=9.975          z (1) @ t=10             z (1) @ t=10.025         z (1) @ t=10.05          z (1) @ t=10.075         z (1) @ t=10.1           z (1) @ t=10.125         z (1) @ t=10.15          z (1) @ t=10.175         z (1) @ t=10.2           z (1) @ t=10.225         z (1) @ t=10.25          z (1) @ t=10.275         z (1) @ t=10.3           z (1) @ t=10.325         z (1) @ t=10.35          z (1) @ t=10.375         z (1) @ t=10.4           z (1) @ t=10.425         z (1) @ t=10.45          z (1) @ t=10.475         z (1) @ t=10.5           z (1) @ t=10.525         z (1) @ t=10.55          z (1) @ t=10.575         z (1) @ t=10.6           z (1) @ t=10.625         z (1) @ t=10.65          z (1) @ t=10.675         z (1) @ t=10.7           z (1) @ t=10.725         z (1) @ t=10.75          z (1) @ t=10.775         z (1) @ t=10.8           z (1) @ t=10.825         z (1) @ t=10.85          z (1) @ t=10.875         z (1) @ t=10.9           z (1) @ t=10.925         z (1) @ t=10.95          z (1) @ t=10.975         z (1) @ t=11             z (1) @ t=11.025         z (1) @ t=11.05          z (1) @ t=11.075         z (1) @ t=11.1           z (1) @ t=11.125         z (1) @ t=11.15          z (1) @ t=11.175         z (1) @ t=11.2           z (1) @ t=11.225         z (1) @ t=11.25          z (1) @ t=11.275         z (1) @ t=11.3           z (1) @ t=11.325         z (1) @ t=11.35          z (1) @ t=11.375         z (1) @ t=11.4           z (1) @ t=11.425         z (1) @ t=11.45          z (1) @ t=11.475         z (1) @ t=11.5           z (1) @ t=11.525         z (1) @ t=11.55          z (1) @ t=11.575         z (1) @ t=11.6           z (1) @ t=11.625         z (1) @ t=11.65          z (1) @ t=11.675         z (1) @ t=11.7           z (1) @ t=11.725         z (1) @ t=11.75          z (1) @ t=11.775         z (1) @ t=11.8           z (1) @ t=11.825         z (1) @ t=11.85          z (1) @ t=11.875         z (1) @ t=11.9           z (1) @ t=11.925         z (1) @ t=11.95          z (1) @ t=11.975         z (1) @ t=12             z (1) @ t=12.025         z (1) @ t=12.05          z (1) @ t=12.075         z (1) @ t=12.1           z (1) @ t=12.125         z (1) @ t=12.15          z (1) @ t=12.175         z (1) @ t=12.2           z (1) @ t=12.225         z (1) @ t=12.25          z (1) @ t=12.275         z (1) @ t=12.3           z (1) @ t=12.325         z (1) @ t=12.35          z (1) @ t=12.375         z (1) @ t=12.4           z (1) @ t=12.425         z (1) @ t=12.45          z (1) @ t=12.475         z (1) @ t=12.5           z (1) @ t=12.525         z (1) @ t=12.55          z (1) @ t=12.575         z (1) @ t=12.6           z (1) @ t=12.625         z (1) @ t=12.65          z (1) @ t=12.675         z (1) @ t=12.7           z (1) @ t=12.725         z (1) @ t=12.75          z (1) @ t=12.775         z (1) @ t=12.8           z (1) @ t=12.825         z (1) @ t=12.85          z (1) @ t=12.875         z (1) @ t=12.9           z (1) @ t=12.925         z (1) @ t=12.95          z (1) @ t=12.975         z (1) @ t=13             z (1) @ t=13.025         z (1) @ t=13.05          z (1) @ t=13.075         z (1) @ t=13.1           z (1) @ t=13.125         z (1) @ t=13.15          z (1) @ t=13.175         z (1) @ t=13.2           z (1) @ t=13.225         z (1) @ t=13.25          z (1) @ t=13.275         z (1) @ t=13.3           z (1) @ t=13.325         z (1) @ t=13.35          z (1) @ t=13.375         z (1) @ t=13.4           z (1) @ t=13.425         z (1) @ t=13.45          z (1) @ t=13.475         z (1) @ t=13.5           z (1) @ t=13.525         z (1) @ t=13.55          z (1) @ t=13.575         z (1) @ t=13.6           z (1) @ t=13.625         z (1) @ t=13.65          z (1) @ t=13.675         z (1) @ t=13.7           z (1) @ t=13.725         z (1) @ t=13.75          z (1) @ t=13.775         z (1) @ t=13.8           z (1) @ t=13.825         z (1) @ t=13.85          z (1) @ t=13.875         z (1) @ t=13.9           z (1) @ t=13.925         z (1) @ t=13.95          z (1) @ t=13.975         z (1) @ t=14             z (1) @ t=14.025         z (1) @ t=14.05          z (1) @ t=14.075         z (1) @ t=14.1           z (1) @ t=14.125         z (1) @ t=14.15          z (1) @ t=14.175         z (1) @ t=14.2           z (1) @ t=14.225         z (1) @ t=14.25          z (1) @ t=14.275         z (1) @ t=14.3           z (1) @ t=14.325         z (1) @ t=14.35          z (1) @ t=14.375         z (1) @ t=14.4           z (1) @ t=14.425         z (1) @ t=14.45          z (1) @ t=14.475         z (1) @ t=14.5           z (1) @ t=14.525         z (1) @ t=14.55          z (1) @ t=14.575         z (1) @ t=14.6           z (1) @ t=14.625         z (1) @ t=14.65          z (1) @ t=14.675         z (1) @ t=14.7           z (1) @ t=14.725         z (1) @ t=14.75          z (1) @ t=14.775         z (1) @ t=14.8           z (1) @ t=14.825         z (1) @ t=14.85          z (1) @ t=14.875         z (1) @ t=14.9           z (1) @ t=14.925         z (1) @ t=14.95          z (1) @ t=14.975         z (1) @ t=15             z (1) @ t=15.025         z (1) @ t=15.05          z (1) @ t=15.075         z (1) @ t=15.1           z (1) @ t=15.125         z (1) @ t=15.15          z (1) @ t=15.175         z (1) @ t=15.2           z (1) @ t=15.225         z (1) @ t=15.25          z (1) @ t=15.275         z (1) @ t=15.3           z (1) @ t=15.325         z (1) @ t=15.35          z (1) @ t=15.375         z (1) @ t=15.4           z (1) @ t=15.425         z (1) @ t=15.45          z (1) @ t=15.475         z (1) @ t=15.5           z (1) @ t=15.525         z (1) @ t=15.55          z (1) @ t=15.575         z (1) @ t=15.6           z (1) @ t=15.625         z (1) @ t=15.65          z (1) @ t=15.675         z (1) @ t=15.7           z (1) @ t=15.725         z (1) @ t=15.75          z (1) @ t=15.775         z (1) @ t=15.8           z (1) @ t=15.825         z (1) @ t=15.85          z (1) @ t=15.875         z (1) @ t=15.9           z (1) @ t=15.925         z (1) @ t=15.95          z (1) @ t=15.975         z (1) @ t=16             z (1) @ t=16.025         z (1) @ t=16.05          z (1) @ t=16.075         z (1) @ t=16.1           z (1) @ t=16.125         z (1) @ t=16.15          z (1) @ t=16.175         z (1) @ t=16.2           z (1) @ t=16.225         z (1) @ t=16.25          z (1) @ t=16.275         z (1) @ t=16.3           z (1) @ t=16.325         z (1) @ t=16.35          z (1) @ t=16.375         z (1) @ t=16.4           z (1) @ t=16.425         z (1) @ t=16.45          z (1) @ t=16.475         z (1) @ t=16.5           z (1) @ t=16.525         z (1) @ t=16.55          z (1) @ t=16.575         z (1) @ t=16.6           z (1) @ t=16.625         z (1) @ t=16.65          z (1) @ t=16.675         z (1) @ t=16.7           z (1) @ t=16.725         z (1) @ t=16.75          z (1) @ t=16.775         z (1) @ t=16.8           z (1) @ t=16.825         z (1) @ t=16.85          z (1) @ t=16.875         z (1) @ t=16.9           z (1) @ t=16.925         z (1) @ t=16.95          z (1) @ t=16.975         z (1) @ t=17             z (1) @ t=17.025         z (1) @ t=17.05          z (1) @ t=17.075         z (1) @ t=17.1           z (1) @ t=17.125         z (1) @ t=17.15          z (1) @ t=17.175         z (1) @ t=17.2           z (1) @ t=17.225         z (1) @ t=17.25          z (1) @ t=17.275         z (1) @ t=17.3           z (1) @ t=17.325         z (1) @ t=17.35          z (1) @ t=17.375         z (1) @ t=17.4           z (1) @ t=17.425         z (1) @ t=17.45          z (1) @ t=17.475         z (1) @ t=17.5           z (1) @ t=17.525         z (1) @ t=17.55          z (1) @ t=17.575         z (1) @ t=17.6           z (1) @ t=17.625         z (1) @ t=17.65          z (1) @ t=17.675         z (1) @ t=17.7           z (1) @ t=17.725         z (1) @ t=17.75          z (1) @ t=17.775         z (1) @ t=17.8           z (1) @ t=17.825         z (1) @ t=17.85          z (1) @ t=17.875         z (1) @ t=17.9           z (1) @ t=17.925         z (1) @ t=17.95          z (1) @ t=17.975         z (1) @ t=18             z (1) @ t=18.025         z (1) @ t=18.05          z (1) @ t=18.075         z (1) @ t=18.1           z (1) @ t=18.125         z (1) @ t=18.15          z (1) @ t=18.175         z (1) @ t=18.2           z (1) @ t=18.225         z (1) @ t=18.25          z (1) @ t=18.275         z (1) @ t=18.3           z (1) @ t=18.325         z (1) @ t=18.35          z (1) @ t=18.375         z (1) @ t=18.4           z (1) @ t=18.425         z (1) @ t=18.45          z (1) @ t=18.475         z (1) @ t=18.5           z (1) @ t=18.525         z (1) @ t=18.55          z (1) @ t=18.575         z (1) @ t=18.6           z (1) @ t=18.625         z (1) @ t=18.65          z (1) @ t=18.675         z (1) @ t=18.7           z (1) @ t=18.725         z (1) @ t=18.75          z (1) @ t=18.775         z (1) @ t=18.8           z (1) @ t=18.825         z (1) @ t=18.85          z (1) @ t=18.875         z (1) @ t=18.9           z (1) @ t=18.925         z (1) @ t=18.95          z (1) @ t=18.975         z (1) @ t=19             z (1) @ t=19.025         z (1) @ t=19.05          z (1) @ t=19.075         z (1) @ t=19.1           z (1) @ t=19.125         z (1) @ t=19.15          z (1) @ t=19.175         z (1) @ t=19.2           z (1) @ t=19.225         z (1) @ t=19.25          z (1) @ t=19.275         z (1) @ t=19.3           z (1) @ t=19.325         z (1) @ t=19.35          z (1) @ t=19.375         z (1) @ t=19.4           z (1) @ t=19.425         z (1) @ t=19.45          z (1) @ t=19.475         z (1) @ t=19.5           z (1) @ t=19.525         z (1) @ t=19.55          z (1) @ t=19.575         z (1) @ t=19.6           z (1) @ t=19.625         z (1) @ t=19.65          z (1) @ t=19.675         z (1) @ t=19.7           z (1) @ t=19.725         z (1) @ t=19.75          z (1) @ t=19.775         z (1) @ t=19.8           z (1) @ t=19.825         z (1) @ t=19.85          z (1) @ t=19.875         z (1) @ t=19.9           z (1) @ t=19.925         z (1) @ t=19.95          z (1) @ t=19.975         z (1) @ t=20